    8    8    1    1
  0.2392351E+02  0.5762863E-09  0.5762863E-09  0.5762863E-09  0.5000000E-15
  1.000000000000000E-004
  CAR 
 unknown system                          
   24   10   20
 
  0.8333333E-01  0.8333333E-01  0.8333333E-01  0.3703704E-01
   1       -8.769742
   2       -5.429089
   3       -5.429089
   4       -5.429089
   5       -4.183199
   6       -4.183199
   7       -4.183199
   8       -0.116120
   9       -0.116120
  10       -0.116120
  11        0.312372
  12        0.312372
  13        0.312372
  14        2.429931
  15        3.464204
  16        3.464207
  17        3.658758
  18        3.658761
  19        3.658774
  20        4.250873
 
  0.2500000E+00  0.8333333E-01  0.8333333E-01  0.1111111E+00
   1       -8.539496
   2       -6.510835
   3       -5.337168
   4       -5.337168
   5       -4.175927
   6       -4.175927
   7       -2.833459
   8       -0.718423
   9       -0.718423
  10        0.109324
  11        0.109324
  12        0.182764
  13        0.561094
  14        1.196816
  15        2.627438
  16        2.787552
  17        3.771529
  18        4.421305
  19        4.421306
  20        4.726848
 
  0.4166667E+00  0.8333333E-01  0.8333333E-01  0.1111111E+00
   1       -8.081510
   2       -7.401632
   3       -5.230114
   4       -5.230114
   5       -4.184724
   6       -4.184724
   7       -1.447088
   8       -1.060829
   9       -1.060829
  10       -0.235867
  11       -0.235867
  12       -0.097454
  13        0.787401
  14        1.049655
  15        1.690053
  16        1.756235
  17        4.093432
  18        4.631718
  19        5.554754
  20        5.986466
 
  0.2500000E+00  0.2500000E+00  0.8333333E-01  0.1111111E+00
   1       -8.312872
   2       -6.344360
   3       -6.344360
   4       -5.435940
   5       -4.092010
   6       -3.060417
   7       -3.060417
   8       -1.193963
   9       -0.379626
  10       -0.379626
  11        0.116297
  12        0.491192
  13        0.491192
  14        0.737807
  15        1.869469
  16        3.177068
  17        4.098016
  18        4.640561
  19        4.640561
  20        5.280693
 
  0.4166667E+00  0.2500000E+00  0.8333333E-01  0.2222222E+00
   1       -7.863509
   2       -7.200938
   3       -6.045127
   4       -5.696844
   5       -3.844876
   6       -3.452612
   7       -1.995648
   8       -1.223962
   9       -0.960531
  10       -0.894094
  11        0.214372
  12        0.490814
  13        0.716876
  14        0.980247
  15        1.287437
  16        2.364876
  17        5.026178
  18        5.061558
  19        5.565515
  20        6.202256
 
  0.4166667E+00  0.4166667E+00  0.8333333E-01  0.1111111E+00
   1       -7.435090
   2       -6.815265
   3       -6.815265
   4       -6.284879
   5       -3.339069
   6       -2.699088
   7       -2.699088
   8       -1.874680
   9       -0.998714
  10       -0.474949
  11       -0.474949
  12        0.173750
  13        1.514915
  14        1.581521
  15        1.581521
  16        2.448397
  17        4.840458
  18        5.495376
  19        5.828059
  20        5.828076
 
  0.2500000E+00  0.2500000E+00  0.2500000E+00  0.3703704E-01
   1       -8.091498
   2       -6.235032
   3       -6.235032
   4       -6.235032
   5       -3.421208
   6       -3.421208
   7       -3.421208
   8       -0.907736
   9       -0.495149
  10       -0.495149
  11       -0.495149
  12        0.961022
  13        0.961022
  14        0.961022
  15        2.658410
  16        2.658410
  17        4.379637
  18        4.379637
  19        4.379637
  20        4.450692
 
  0.4166667E+00  0.2500000E+00  0.2500000E+00  0.1111111E+00
   1       -7.655487
   2       -7.022432
   3       -6.105010
   4       -6.105010
   5       -3.771385
   6       -3.771385
   7       -2.701448
   8       -1.877252
   9       -0.435680
  10       -0.435680
  11        0.660904
  12        1.028769
  13        1.028769
  14        1.391483
  15        1.943409
  16        1.988597
  17        4.878182
  18        4.977381
  19        5.256240
  20        5.256242
 
  0.4166667E+00  0.4166667E+00  0.2500000E+00  0.1111111E+00
   1       -7.254194
   2       -6.701344
   3       -6.701344
   4       -6.338560
   5       -3.804672
   6       -3.396608
   7       -3.396608
   8       -2.743235
   9        0.064611
  10        0.519897
  11        0.519897
  12        1.316210
  13        1.658189
  14        1.695228
  15        1.695228
  16        2.363504
  17        4.785900
  18        4.984369
  19        5.353017
  20        5.353016
 
  0.4166667E+00  0.4166667E+00  0.4166667E+00  0.3703704E-01
   1       -6.929310
   2       -6.565532
   3       -6.565532
   4       -6.565532
   5       -3.906989
   6       -3.906989
   7       -3.906989
   8       -3.500221
   9        1.376391
  10        1.376391
  11        1.376391
  12        1.904303
  13        1.904303
  14        1.904303
  15        2.170772
  16        2.170772
  17        4.042405
  18        4.669695
  19        4.669697
  20        4.669696
