       N       E                     dE             d eps       ncg     rms          rms(c)
DAV:   1     0.243276026007E+02    0.24328E+02   -0.51989E+03   400   0.436E+02
DAV:   2    -0.203295451520E+02   -0.44657E+02   -0.44245E+02   660   0.709E+01
DAV:   3    -0.210446891573E+02   -0.71514E+00   -0.71459E+00   400   0.124E+01
DAV:   4    -0.210466245248E+02   -0.19354E-02   -0.19353E-02   740   0.648E-01
DAV:   5    -0.210466246359E+02   -0.11114E-06   -0.11114E-06   400   0.371E-03    0.278E+00
RMM:   6    -0.209660099491E+02    0.80615E-01   -0.12087E-02   400   0.941E-01    0.172E+00
RMM:   7    -0.209242281193E+02    0.41782E-01   -0.32648E-02   401   0.150E+00    0.956E-02
RMM:   8    -0.209245141443E+02   -0.28603E-03   -0.49959E-04   360   0.111E-01    0.193E-02
RMM:   9    -0.209245508991E+02   -0.36755E-04   -0.71269E-05   264   0.457E-02
   1 F= -.20924551E+02 E0= -.20875031E+02  d E =-.990393E-01
