<?xml version="1.0" encoding="ISO-8859-1"?>
<modeling>
 <generator>
  <i name="program" type="string">vasp </i>
  <i name="version" type="string">5.3.3  </i>
  <i name="subversion" type="string">18Dez12 (build Dec 13 2014 13:36:02) complex                          parallel </i>
  <i name="platform" type="string">LinuxIFC </i>
  <i name="date" type="string">2018 11 27 </i>
  <i name="time" type="string">23:21:40 </i>
 </generator>
 <incar>
  <i type="string" name="PREC">normal</i>
  <i type="string" name="ALGO"> Fast</i>
  <i type="int" name="ISPIN">     1</i>
  <i type="int" name="IBRION">    -1</i>
  <i type="int" name="NSW">     0</i>
  <i type="int" name="ISYM">     1</i>
  <i name="ENCUT">    200.00000000</i>
  <i type="int" name="ISMEAR">     0</i>
  <i name="SIGMA">      0.20000000</i>
  <i type="logical" name="LWAVE"> F  </i>
  <i type="logical" name="LCHARG"> F  </i>
 </incar>
 <kpoints>
  <generation param="Monkhorst-Pack">
   <v type="int" name="divisions">       6        6        6 </v>
   <v name="usershift">      0.00000000       0.00000000       0.00000000 </v>
   <v name="genvec1">      0.16666667       0.00000000       0.00000000 </v>
   <v name="genvec2">      0.00000000       0.16666667       0.00000000 </v>
   <v name="genvec3">      0.00000000       0.00000000       0.16666667 </v>
   <v name="shift">      0.50000000       0.50000000       0.50000000 </v>
  </generation>
  <varray name="kpointlist" >
   <v>       0.08333333       0.08333333       0.08333333 </v>
   <v>       0.25000000       0.08333333       0.08333333 </v>
   <v>       0.41666667       0.08333333       0.08333333 </v>
   <v>       0.25000000       0.25000000       0.08333333 </v>
   <v>       0.41666667       0.25000000       0.08333333 </v>
   <v>       0.41666667       0.41666667       0.08333333 </v>
   <v>       0.25000000       0.25000000       0.25000000 </v>
   <v>       0.41666667       0.25000000       0.25000000 </v>
   <v>       0.41666667       0.41666667       0.25000000 </v>
   <v>       0.41666667       0.41666667       0.41666667 </v>
  </varray>
  <varray name="weights" >
   <v>       0.03703704 </v>
   <v>       0.11111111 </v>
   <v>       0.11111111 </v>
   <v>       0.11111111 </v>
   <v>       0.22222222 </v>
   <v>       0.11111111 </v>
   <v>       0.03703704 </v>
   <v>       0.11111111 </v>
   <v>       0.11111111 </v>
   <v>       0.03703704 </v>
  </varray>
 </kpoints>
 <parameters>
  <separator name="general" >
   <i type="string" name="SYSTEM">unknown system</i>
   <i type="logical" name="LCOMPAT"> F  </i>
  </separator>
  <separator name="electronic" >
   <i type="string" name="PREC">normal</i>
   <i name="ENMAX">    200.00000000</i>
   <i name="ENAUG">    320.26400000</i>
   <i name="EDIFF">      0.00010000</i>
   <i type="int" name="IALGO">    68</i>
   <i type="int" name="IWAVPR">    10</i>
   <i type="int" name="NBANDS">    20</i>
   <i name="NELECT">     24.00000000</i>
   <i type="int" name="TURBO">     0</i>
   <i type="int" name="IRESTART">     0</i>
   <i type="int" name="NREBOOT">     0</i>
   <i type="int" name="NMIN">     0</i>
   <i name="EREF">      0.00000000</i>
   <separator name="electronic smearing" >
    <i type="int" name="ISMEAR">     0</i>
    <i name="SIGMA">      0.20000000</i>
    <i name="KSPACING">      0.50000000</i>
    <i type="logical" name="KGAMMA"> T  </i>
   </separator>
   <separator name="electronic projectors" >
    <i type="logical" name="LREAL"> F  </i>
    <v name="ROPT">      0.00000000</v>
    <i type="int" name="LMAXPAW">  -100</i>
    <i type="int" name="LMAXMIX">     2</i>
    <i type="logical" name="NLSPLINE"> F  </i>
   </separator>
   <separator name="electronic startup" >
    <i type="int" name="ISTART">     0</i>
    <i type="int" name="ICHARG">     2</i>
    <i type="int" name="INIWAV">     1</i>
   </separator>
   <separator name="electronic spin" >
    <i type="int" name="ISPIN">     1</i>
    <i type="logical" name="LNONCOLLINEAR"> F  </i>
    <v name="MAGMOM">      1.00000000      1.00000000      1.00000000      1.00000000      1.00000000      1.00000000      1.00000000      1.00000000</v>
    <i name="NUPDOWN">     -1.00000000</i>
    <i type="logical" name="LSORBIT"> F  </i>
    <v name="SAXIS">      0.00000000      0.00000000      1.00000000</v>
    <i type="logical" name="LSPIRAL"> F  </i>
    <v name="QSPIRAL">      0.00000000      0.00000000      0.00000000</v>
    <i type="logical" name="LZEROZ"> F  </i>
   </separator>
   <separator name="electronic exchange-correlation" >
    <i type="logical" name="LASPH"> F  </i>
    <i type="logical" name="LMETAGGA"> F  </i>
   </separator>
   <separator name="electronic convergence" >
    <i type="int" name="NELM">    60</i>
    <i type="int" name="NELMDL">    -5</i>
    <i type="int" name="NELMIN">     2</i>
    <i name="ENINI">    200.00000000</i>
    <separator name="electronic convergence detail" >
     <i type="logical" name="LDIAG"> T  </i>
     <i type="logical" name="LSUBROT"> T  </i>
     <i name="WEIMIN">      0.00000000</i>
     <i name="EBREAK">      0.00000125</i>
     <i name="DEPER">      0.30000000</i>
     <i type="int" name="NRMM">     4</i>
     <i name="TIME">      0.40000000</i>
    </separator>
   </separator>
   <separator name="electronic mixer" >
    <i name="AMIX">      0.40000000</i>
    <i name="BMIX">      1.00000000</i>
    <i name="AMIN">      0.10000000</i>
    <i name="AMIX_MAG">      1.60000000</i>
    <i name="BMIX_MAG">      1.00000000</i>
    <separator name="electronic mixer details" >
     <i type="int" name="IMIX">     4</i>
     <i type="int" name="MAXMIX">   -45</i>
     <i name="WC">    100.00000000</i>
     <i type="int" name="INIMIX">     1</i>
     <i type="int" name="MIXPRE">     1</i>
     <i type="int" name="MREMOVE">     5</i>
    </separator>
   </separator>
   <separator name="electronic dipolcorrection" >
    <i type="logical" name="LDIPOL"> F  </i>
    <i type="logical" name="LMONO"> F  </i>
    <i type="int" name="IDIPOL">     0</i>
    <i name="EPSILON">      1.00000000</i>
    <v name="DIPOL">   -100.00000000   -100.00000000   -100.00000000</v>
    <i name="EFIELD">      0.00000000</i>
   </separator>
  </separator>
  <separator name="grids" >
   <i type="int" name="NGX">    20</i>
   <i type="int" name="NGY">    20</i>
   <i type="int" name="NGZ">    20</i>
   <i type="int" name="NGXF">    40</i>
   <i type="int" name="NGYF">    40</i>
   <i type="int" name="NGZF">    40</i>
   <i type="logical" name="ADDGRID"> F  </i>
  </separator>
  <separator name="ionic" >
   <i type="int" name="NSW">     0</i>
   <i type="int" name="IBRION">    -1</i>
   <i type="int" name="ISIF">     2</i>
   <i name="PSTRESS">      0.00000000</i>
   <i name="EDIFFG">      0.00100000</i>
   <i type="int" name="NFREE">     0</i>
   <i name="POTIM">      0.50000000</i>
   <i name="SMASS">     -3.00000000</i>
   <i name="SCALEE">      1.00000000</i>
  </separator>
  <separator name="ionic md" >
   <i name="TEBEG">      0.00010000</i>
   <i name="TEEND">      0.00010000</i>
   <i type="int" name="NBLOCK">     1</i>
   <i type="int" name="KBLOCK">     1</i>
   <i type="int" name="NPACO">   256</i>
   <i name="APACO">     16.00000000</i>
  </separator>
  <separator name="symmetry" >
   <i type="int" name="ISYM">     1</i>
   <i name="SYMPREC">      0.00001000</i>
  </separator>
  <separator name="dos" >
   <i type="logical" name="LORBIT"> F  </i>
   <v name="RWIGS">     -1.00000000</v>
   <i type="int" name="NEDOS">   301</i>
   <i name="EMIN">     10.00000000</i>
   <i name="EMAX">    -10.00000000</i>
   <i name="EFERMI">      0.00000000</i>
  </separator>
  <separator name="writing" >
   <i type="int" name="NWRITE">     2</i>
   <i type="logical" name="LWAVE"> F  </i>
   <i type="logical" name="LCHARG"> F  </i>
   <i type="logical" name="LPARD"> F  </i>
   <i type="logical" name="LVTOT"> F  </i>
   <i type="logical" name="LVHAR"> F  </i>
   <i type="logical" name="LELF"> F  </i>
   <i type="logical" name="LOPTICS"> F  </i>
   <v name="STM">      0.00000000      0.00000000      0.00000000      0.00000000      0.00000000      0.00000000      0.00000000</v>
  </separator>
  <separator name="performance" >
   <i type="int" name="NPAR">    20</i>
   <i type="int" name="NSIM">     4</i>
   <i type="int" name="NBLK">    -1</i>
   <i type="logical" name="LPLANE"> T  </i>
   <i type="logical" name="LSCALAPACK"> T  </i>
   <i type="logical" name="LSCAAWARE"> F  </i>
   <i type="logical" name="LSCALU"> F  </i>
   <i type="logical" name="LASYNC"> F  </i>
   <i type="logical" name="LORBITALREAL"> F  </i>
  </separator>
  <separator name="miscellaneous" >
   <i type="int" name="IDIOT">     3</i>
   <i type="logical" name="LMUSIC"> F  </i>
   <v name="POMASS">     69.72300000</v>
   <v name="DARWINR">      0.00000000</v>
   <v name="DARWINV">      1.00000000</v>
   <i type="logical" name="LCORR"> T  </i>
  </separator>
  <i type="logical" name="GGA_COMPAT"> T  </i>
  <i type="logical" name="LBERRY"> F  </i>
  <i type="int" name="ICORELEVEL">     0</i>
  <i type="logical" name="LDAU"> F  </i>
  <i type="int" name="I_CONSTRAINED_M">     0</i>
  <separator name="electronic exchange-correlation" >
   <i type="string" name="GGA">--</i>
   <i type="int" name="VOSKOWN">     0</i>
   <i type="logical" name="LHFCALC"> F  </i>
   <i type="string" name="PRECFOCK"></i>
   <i type="logical" name="LSYMGRAD"> F  </i>
   <i type="logical" name="LHFONE"> F  </i>
   <i type="logical" name="LRHFCALC"> F  </i>
   <i type="logical" name="LTHOMAS"> F  </i>
   <i type="logical" name="LMODELHF"> F  </i>
   <i name="ENCUT4O">     -1.00000000</i>
   <i type="int" name="EXXOEP">     0</i>
   <i type="int" name="FOURORBIT">     0</i>
   <i name="AEXX">      0.00000000</i>
   <i name="HFALPHA">      0.00000000</i>
   <i name="MCALPHA">      0.00000000</i>
   <i name="ALDAX">      1.00000000</i>
   <i name="AGGAX">      1.00000000</i>
   <i name="ALDAC">      1.00000000</i>
   <i name="AGGAC">      1.00000000</i>
   <i type="int" name="NKREDX">     1</i>
   <i type="int" name="NKREDY">     1</i>
   <i type="int" name="NKREDZ">     1</i>
   <i type="logical" name="SHIFTRED"> F  </i>
   <i type="logical" name="ODDONLY"> F  </i>
   <i type="logical" name="EVENONLY"> F  </i>
   <i type="int" name="LMAXFOCK">     0</i>
   <i type="int" name="NMAXFOCKAE">     0</i>
   <i type="logical" name="LFOCKAEDFT"> F  </i>
   <i name="HFSCREEN">      0.00000000</i>
   <i name="HFSCREENC">      0.00000000</i>
   <i type="int" name="NBANDSGWLOW">     0</i>
  </separator>
  <separator name="vdW DFT" >
   <i type="logical" name="LUSE_VDW"> F  </i>
   <i name="Zab_VDW">     -0.84910000</i>
   <i name="PARAM1">      0.12340000</i>
   <i name="PARAM2">      1.00000000</i>
   <i name="PARAM3">      0.00000000</i>
  </separator>
  <separator name="model GW" >
   <i type="int" name="MODEL_GW">     0</i>
   <i name="MODEL_EPS0">     14.35410601</i>
   <i name="MODEL_ALPHA">      1.00000000</i>
  </separator>
  <separator name="linear response parameters" >
   <i type="logical" name="LEPSILON"> F  </i>
   <i type="logical" name="LRPA"> F  </i>
   <i type="logical" name="LNABLA"> F  </i>
   <i type="logical" name="LVEL"> F  </i>
   <i type="int" name="KINTER">     0</i>
   <i name="CSHIFT">      0.10000000</i>
   <i name="OMEGAMAX">     -1.00000000</i>
   <i name="DEG_THRESHOLD">      0.00200000</i>
  </separator>
  <separator name="orbital magnetization" >
   <i type="logical" name="NUCIND"> F  </i>
   <v name="MAGPOS">      0.00000000      0.00000000      0.00000000</v>
   <i type="logical" name="LNICSALL"> T  </i>
   <i type="logical" name="ORBITALMAG"> F  </i>
   <i type="logical" name="LMAGBLOCH"> F  </i>
   <i type="logical" name="LCHIMAG"> F  </i>
   <i type="logical" name="LGAUGE"> T  </i>
   <i type="int" name="MAGATOM">     0</i>
   <v name="MAGDIPOL">      0.00000000      0.00000000      0.00000000</v>
   <v name="AVECCONST">      0.00000000      0.00000000      0.00000000</v>
  </separator>
  <separator name="response functions" >
   <i type="logical" name="LADDER"> F  </i>
   <i type="logical" name="LFXC"> F  </i>
   <i type="logical" name="LHARTREE"> T  </i>
   <i type="int" name="IBSE">     0</i>
   <i type="logical" name="LTCTE"> F  </i>
   <i type="logical" name="LTETE"> F  </i>
   <i type="logical" name="LTRIPLET"> F  </i>
   <i type="logical" name="LFXCEPS"> F  </i>
   <i type="logical" name="L2ORDER"> F  </i>
   <i type="logical" name="LUSEW"> F  </i>
   <i name="ENCUTGW">     -2.00000000</i>
   <i name="ENCUTGWSOFT">     -2.00000000</i>
   <i name="ENCUTLF">     -1.00000000</i>
   <i type="int" name="LMAXMP2">    -1</i>
   <i name="SCISSOR">      0.00000000</i>
   <i type="int" name="NOMEGA">     0</i>
   <i type="int" name="NOMEGAR">     0</i>
   <i type="int" name="NBANDSGW">    -1</i>
   <i type="int" name="NBANDSO">    -1</i>
   <i type="int" name="NBANDSV">    -1</i>
   <i type="int" name="NELM">     1</i>
   <i type="int" name="DIM">     3</i>
   <i type="int" name="ANTIRES">     0</i>
   <i name="OMEGAMAX">    -30.00000000</i>
   <i name="OMEGATL">   -200.00000000</i>
   <i type="int" name="OMEGAGRID">     0</i>
   <i name="CSHIFT">     -0.10000000</i>
   <i type="logical" name="SELFENERGY"> F  </i>
   <i type="logical" name="LSPECTRAL"> F  </i>
   <i type="logical" name="ODDONLYGW"> F  </i>
   <i type="logical" name="EVENONLYGW"> F  </i>
   <i type="int" name="NKREDLFX">     1</i>
   <i type="int" name="NKREDLFY">     1</i>
   <i type="int" name="NKREDLFZ">     1</i>
   <i type="int" name="MAXMEM">  1800</i>
   <i type="int" name="TELESCOPE">     0</i>
  </separator>
 </parameters>
 <atominfo>
  <atoms>       8 </atoms>
  <types>       1 </types>
  <array name="atoms" >
   <dimension dim="1">ion</dimension>
   <field type="string">element</field>
   <field type="int">atomtype</field>
   <set>
    <rc><c>Ga</c><c>   1</c></rc>
    <rc><c>Ga</c><c>   1</c></rc>
    <rc><c>Ga</c><c>   1</c></rc>
    <rc><c>Ga</c><c>   1</c></rc>
    <rc><c>Ga</c><c>   1</c></rc>
    <rc><c>Ga</c><c>   1</c></rc>
    <rc><c>Ga</c><c>   1</c></rc>
    <rc><c>Ga</c><c>   1</c></rc>
   </set>
  </array>
  <array name="atomtypes" >
   <dimension dim="1">type</dimension>
   <field type="int">atomspertype</field>
   <field type="string">element</field>
   <field>mass</field>
   <field>valence</field>
   <field type="string">pseudopotential</field>
   <set>
    <rc><c>   8</c><c>Ga</c><c>     69.72300000</c><c>      3.00000000</c><c> PAW_PBE Ga 08Apr2002                   </c></rc>
   </set>
  </array>
 </atominfo>
 <structure name="initialpos" >
  <crystal>
   <varray name="basis" >
    <v>       5.76286300       0.00000000       0.00000000 </v>
    <v>       0.00000000       5.76286300       0.00000000 </v>
    <v>       0.00000000       0.00000000       5.76286300 </v>
   </varray>
   <i name="volume">    191.38808007 </i>
   <varray name="rec_basis" >
    <v>       0.17352486       0.00000000       0.00000000 </v>
    <v>       0.00000000       0.17352486       0.00000000 </v>
    <v>       0.00000000       0.00000000       0.17352486 </v>
   </varray>
  </crystal>
  <varray name="positions" >
   <v>       0.75000000       0.75000000       0.75000000 </v>
   <v>       0.50000000       0.00000000       0.00000000 </v>
   <v>       0.75000000       0.25000000       0.25000000 </v>
   <v>       0.50000000       0.50000000       0.50000000 </v>
   <v>       0.25000000       0.75000000       0.25000000 </v>
   <v>       0.00000000       0.00000000       0.50000000 </v>
   <v>       0.25000000       0.25000000       0.75000000 </v>
   <v>       0.00000000       0.50000000       0.00000000 </v>
  </varray>
 </structure>
 <calculation>
  <scstep>
   <time name="dav">    0.06    0.06</time>
   <time name="total">    0.08    0.10</time>
   <energy>
    <i name="alphaZ">     59.64982895 </i>
    <i name="ewald">   -484.56382983 </i>
    <i name="hartreedc">    -22.55400904 </i>
    <i name="XCdc">   -155.28695126 </i>
    <i name="pawpsdc">    330.10196642 </i>
    <i name="pawaedc">   -140.54714835 </i>
    <i name="eentropy">     -0.04071692 </i>
    <i name="bandstr">    -33.37684484 </i>
    <i name="atom">    470.94530748 </i>
    <i name="e_fr_energy">     24.32760260 </i>
    <i name="e_wo_entrp">     24.36831952 </i>
    <i name="e_0_energy">     24.34796106 </i>
   </energy>
  </scstep>
  <scstep>
   <time name="dav">    0.10    0.11</time>
   <time name="total">    0.11    0.11</time>
   <energy>
    <i name="e_fr_energy">    -20.32954515 </i>
    <i name="e_wo_entrp">    -20.23485218 </i>
    <i name="e_0_energy">    -20.28219867 </i>
   </energy>
  </scstep>
  <scstep>
   <time name="dav">    0.05    0.05</time>
   <time name="total">    0.05    0.05</time>
   <energy>
    <i name="e_fr_energy">    -21.04468916 </i>
    <i name="e_wo_entrp">    -20.94582919 </i>
    <i name="e_0_energy">    -20.99525917 </i>
   </energy>
  </scstep>
  <scstep>
   <time name="dav">    0.12    0.12</time>
   <time name="total">    0.12    0.12</time>
   <energy>
    <i name="e_fr_energy">    -21.04662452 </i>
    <i name="e_wo_entrp">    -20.94773046 </i>
    <i name="e_0_energy">    -20.99717749 </i>
   </energy>
  </scstep>
  <scstep>
   <time name="dav">    0.05    0.05</time>
   <time name="total">    0.07    0.08</time>
   <energy>
    <i name="e_fr_energy">    -21.04662464 </i>
    <i name="e_wo_entrp">    -20.94773057 </i>
    <i name="e_0_energy">    -20.99717760 </i>
   </energy>
  </scstep>
  <scstep>
   <time name="diag">    0.03    0.06</time>
   <time name="diis">    0.02    0.02</time>
   <time name="orth">    0.00    0.00</time>
   <time name="total">    0.08    0.11</time>
   <energy>
    <i name="e_fr_energy">    -20.96600995 </i>
    <i name="e_wo_entrp">    -20.86710685 </i>
    <i name="e_0_energy">    -20.91655840 </i>
   </energy>
  </scstep>
  <scstep>
   <time name="diag">    0.01    0.01</time>
   <time name="diis">    0.02    0.02</time>
   <time name="orth">    0.00    0.00</time>
   <time name="total">    0.06    0.06</time>
   <energy>
    <i name="e_fr_energy">    -20.92422812 </i>
    <i name="e_wo_entrp">    -20.82525632 </i>
    <i name="e_0_energy">    -20.87474222 </i>
   </energy>
  </scstep>
  <scstep>
   <time name="diag">    0.01    0.01</time>
   <time name="diis">    0.03    0.03</time>
   <time name="orth">    0.00    0.00</time>
   <time name="total">    0.07    0.07</time>
   <energy>
    <i name="e_fr_energy">    -20.92451414 </i>
    <i name="e_wo_entrp">    -20.82549144 </i>
    <i name="e_0_energy">    -20.87500279 </i>
   </energy>
  </scstep>
  <scstep>
   <time name="diag">    0.01    0.01</time>
   <time name="diis">    0.03    0.03</time>
   <time name="orth">    0.00    0.00</time>
   <time name="total">    0.05    0.05</time>
   <energy>
    <i name="alphaZ">     59.64982895 </i>
    <i name="ewald">   -484.56382983 </i>
    <i name="hartreedc">    -24.22780900 </i>
    <i name="XCdc">   -153.71378910 </i>
    <i name="pawpsdc">    419.45241039 </i>
    <i name="pawaedc">   -231.30707793 </i>
    <i name="eentropy">     -0.09903933 </i>
    <i name="bandstr">    -77.06055253 </i>
    <i name="atom">    470.94530748 </i>
    <i name="e_fr_energy">    -20.92455090 </i>
    <i name="e_wo_entrp">    -20.82551157 </i>
    <i name="e_0_energy">    -20.87503124 </i>
   </energy>
  </scstep>
  <structure>
   <crystal>
    <varray name="basis" >
     <v>       5.76286300       0.00000000       0.00000000 </v>
     <v>       0.00000000       5.76286300       0.00000000 </v>
     <v>       0.00000000       0.00000000       5.76286300 </v>
    </varray>
    <i name="volume">    191.38808007 </i>
    <varray name="rec_basis" >
     <v>       0.17352486       0.00000000       0.00000000 </v>
     <v>       0.00000000       0.17352486       0.00000000 </v>
     <v>       0.00000000       0.00000000       0.17352486 </v>
    </varray>
   </crystal>
   <varray name="positions" >
    <v>       0.75000000       0.75000000       0.75000000 </v>
    <v>       0.50000000       0.00000000       0.00000000 </v>
    <v>       0.75000000       0.25000000       0.25000000 </v>
    <v>       0.50000000       0.50000000       0.50000000 </v>
    <v>       0.25000000       0.75000000       0.25000000 </v>
    <v>       0.00000000       0.00000000       0.50000000 </v>
    <v>       0.25000000       0.25000000       0.75000000 </v>
    <v>       0.00000000       0.50000000       0.00000000 </v>
   </varray>
  </structure>
  <varray name="forces" >
   <v>      -0.00000000       0.00000000      -0.00000000 </v>
   <v>       0.00000000      -0.00000000       0.00000000 </v>
   <v>      -0.00000000       0.00000000      -0.00000000 </v>
   <v>       0.00000000       0.00000000      -0.00000000 </v>
   <v>      -0.00000000       0.00000000      -0.00000000 </v>
   <v>       0.00000000      -0.00000000       0.00000000 </v>
   <v>      -0.00000000      -0.00000000       0.00000000 </v>
   <v>       0.00000000      -0.00000000       0.00000000 </v>
  </varray>
  <varray name="stress" >
   <v>      27.78677729       0.00000000      -0.00000000 </v>
   <v>       0.00000000      27.78677729       0.00000000 </v>
   <v>       0.00000000       0.00000000      27.78677729 </v>
  </varray>
  <energy>
   <i name="e_fr_energy">    -20.92455090 </i>
   <i name="e_wo_entrp">    -20.87503124 </i>
   <i name="e_0_energy">     -0.09903933 </i>
  </energy>
  <time name="totalsc">    0.84    0.90</time>
  <eigenvalues>
   <array>
    <dimension dim="1">band</dimension>
    <dimension dim="2">kpoint</dimension>
    <dimension dim="3">spin</dimension>
    <field>eigene</field>
    <field>occ</field>
    <set>
     <set comment="spin 1">
      <set comment="kpoint 1">
       <r>   -8.7697    1.0000 </r>
       <r>   -5.4291    1.0000 </r>
       <r>   -5.4291    1.0000 </r>
       <r>   -5.4291    1.0000 </r>
       <r>   -4.1832    1.0000 </r>
       <r>   -4.1832    1.0000 </r>
       <r>   -4.1832    1.0000 </r>
       <r>   -0.1161    1.0000 </r>
       <r>   -0.1161    1.0000 </r>
       <r>   -0.1161    1.0000 </r>
       <r>    0.3124    0.9984 </r>
       <r>    0.3124    0.9984 </r>
       <r>    0.3124    0.9984 </r>
       <r>    2.4299    0.0000 </r>
       <r>    3.4642    0.0000 </r>
       <r>    3.4642    0.0000 </r>
       <r>    3.6588    0.0000 </r>
       <r>    3.6588    0.0000 </r>
       <r>    3.6588    0.0000 </r>
       <r>    4.2509    0.0000 </r>
      </set>
      <set comment="kpoint 2">
       <r>   -8.5395    1.0000 </r>
       <r>   -6.5108    1.0000 </r>
       <r>   -5.3372    1.0000 </r>
       <r>   -5.3372    1.0000 </r>
       <r>   -4.1759    1.0000 </r>
       <r>   -4.1759    1.0000 </r>
       <r>   -2.8335    1.0000 </r>
       <r>   -0.7184    1.0000 </r>
       <r>   -0.7184    1.0000 </r>
       <r>    0.1093    1.0000 </r>
       <r>    0.1093    1.0000 </r>
       <r>    0.1828    0.9999 </r>
       <r>    0.5611    0.8847 </r>
       <r>    1.1968    0.0005 </r>
       <r>    2.6274    0.0000 </r>
       <r>    2.7876    0.0000 </r>
       <r>    3.7715    0.0000 </r>
       <r>    4.4213    0.0000 </r>
       <r>    4.4213    0.0000 </r>
       <r>    4.7268    0.0000 </r>
      </set>
      <set comment="kpoint 3">
       <r>   -8.0815    1.0000 </r>
       <r>   -7.4016    1.0000 </r>
       <r>   -5.2301    1.0000 </r>
       <r>   -5.2301    1.0000 </r>
       <r>   -4.1847    1.0000 </r>
       <r>   -4.1847    1.0000 </r>
       <r>   -1.4471    1.0000 </r>
       <r>   -1.0608    1.0000 </r>
       <r>   -1.0608    1.0000 </r>
       <r>   -0.2359    1.0000 </r>
       <r>   -0.2359    1.0000 </r>
       <r>   -0.0975    1.0000 </r>
       <r>    0.7874    0.3440 </r>
       <r>    1.0497    0.0120 </r>
       <r>    1.6901    0.0000 </r>
       <r>    1.7562    0.0000 </r>
       <r>    4.0934    0.0000 </r>
       <r>    4.6317    0.0000 </r>
       <r>    5.5548    0.0000 </r>
       <r>    5.9865    0.0000 </r>
      </set>
      <set comment="kpoint 4">
       <r>   -8.3129    1.0000 </r>
       <r>   -6.3444    1.0000 </r>
       <r>   -6.3444    1.0000 </r>
       <r>   -5.4359    1.0000 </r>
       <r>   -4.0920    1.0000 </r>
       <r>   -3.0604    1.0000 </r>
       <r>   -3.0604    1.0000 </r>
       <r>   -1.1940    1.0000 </r>
       <r>   -0.3796    1.0000 </r>
       <r>   -0.3796    1.0000 </r>
       <r>    0.1163    1.0000 </r>
       <r>    0.4912    0.9548 </r>
       <r>    0.4912    0.9548 </r>
       <r>    0.7378    0.4798 </r>
       <r>    1.8695    0.0000 </r>
       <r>    3.1771    0.0000 </r>
       <r>    4.0980    0.0000 </r>
       <r>    4.6406    0.0000 </r>
       <r>    4.6406    0.0000 </r>
       <r>    5.2807    0.0000 </r>
      </set>
      <set comment="kpoint 5">
       <r>   -7.8635    1.0000 </r>
       <r>   -7.2009    1.0000 </r>
       <r>   -6.0451    1.0000 </r>
       <r>   -5.6968    1.0000 </r>
       <r>   -3.8449    1.0000 </r>
       <r>   -3.4526    1.0000 </r>
       <r>   -1.9956    1.0000 </r>
       <r>   -1.2240    1.0000 </r>
       <r>   -0.9605    1.0000 </r>
       <r>   -0.8941    1.0000 </r>
       <r>    0.2144    0.9999 </r>
       <r>    0.4908    0.9550 </r>
       <r>    0.7169    0.5387 </r>
       <r>    0.9802    0.0388 </r>
       <r>    1.2874    0.0000 </r>
       <r>    2.3649    0.0000 </r>
       <r>    5.0262    0.0000 </r>
       <r>    5.0616    0.0000 </r>
       <r>    5.5655    0.0000 </r>
       <r>    6.2023    0.0000 </r>
      </set>
      <set comment="kpoint 6">
       <r>   -7.4351    1.0000 </r>
       <r>   -6.8153    1.0000 </r>
       <r>   -6.8153    1.0000 </r>
       <r>   -6.2849    1.0000 </r>
       <r>   -3.3391    1.0000 </r>
       <r>   -2.6991    1.0000 </r>
       <r>   -2.6991    1.0000 </r>
       <r>   -1.8747    1.0000 </r>
       <r>   -0.9987    1.0000 </r>
       <r>   -0.4749    1.0000 </r>
       <r>   -0.4749    1.0000 </r>
       <r>    0.1738    1.0000 </r>
       <r>    1.5149    0.0000 </r>
       <r>    1.5815    0.0000 </r>
       <r>    1.5815    0.0000 </r>
       <r>    2.4484    0.0000 </r>
       <r>    4.8405    0.0000 </r>
       <r>    5.4954    0.0000 </r>
       <r>    5.8281    0.0000 </r>
       <r>    5.8281    0.0000 </r>
      </set>
      <set comment="kpoint 7">
       <r>   -8.0915    1.0000 </r>
       <r>   -6.2350    1.0000 </r>
       <r>   -6.2350    1.0000 </r>
       <r>   -6.2350    1.0000 </r>
       <r>   -3.4212    1.0000 </r>
       <r>   -3.4212    1.0000 </r>
       <r>   -3.4212    1.0000 </r>
       <r>   -0.9077    1.0000 </r>
       <r>   -0.4951    1.0000 </r>
       <r>   -0.4951    1.0000 </r>
       <r>   -0.4951    1.0000 </r>
       <r>    0.9610    0.0516 </r>
       <r>    0.9610    0.0516 </r>
       <r>    0.9610    0.0516 </r>
       <r>    2.6584    0.0000 </r>
       <r>    2.6584    0.0000 </r>
       <r>    4.3796    0.0000 </r>
       <r>    4.3796    0.0000 </r>
       <r>    4.3796    0.0000 </r>
       <r>    4.4507    0.0000 </r>
      </set>
      <set comment="kpoint 8">
       <r>   -7.6555    1.0000 </r>
       <r>   -7.0224    1.0000 </r>
       <r>   -6.1050    1.0000 </r>
       <r>   -6.1050    1.0000 </r>
       <r>   -3.7714    1.0000 </r>
       <r>   -3.7714    1.0000 </r>
       <r>   -2.7014    1.0000 </r>
       <r>   -1.8773    1.0000 </r>
       <r>   -0.4357    1.0000 </r>
       <r>   -0.4357    1.0000 </r>
       <r>    0.6609    0.6890 </r>
       <r>    1.0288    0.0175 </r>
       <r>    1.0288    0.0175 </r>
       <r>    1.3915    0.0000 </r>
       <r>    1.9434    0.0000 </r>
       <r>    1.9886    0.0000 </r>
       <r>    4.8782    0.0000 </r>
       <r>    4.9774    0.0000 </r>
       <r>    5.2562    0.0000 </r>
       <r>    5.2562    0.0000 </r>
      </set>
      <set comment="kpoint 9">
       <r>   -7.2542    1.0000 </r>
       <r>   -6.7013    1.0000 </r>
       <r>   -6.7013    1.0000 </r>
       <r>   -6.3386    1.0000 </r>
       <r>   -3.8047    1.0000 </r>
       <r>   -3.3966    1.0000 </r>
       <r>   -3.3966    1.0000 </r>
       <r>   -2.7432    1.0000 </r>
       <r>    0.0646    1.0000 </r>
       <r>    0.5199    0.9319 </r>
       <r>    0.5199    0.9319 </r>
       <r>    1.3162    0.0000 </r>
       <r>    1.6582    0.0000 </r>
       <r>    1.6952    0.0000 </r>
       <r>    1.6952    0.0000 </r>
       <r>    2.3635    0.0000 </r>
       <r>    4.7859    0.0000 </r>
       <r>    4.9844    0.0000 </r>
       <r>    5.3530    0.0000 </r>
       <r>    5.3530    0.0000 </r>
      </set>
      <set comment="kpoint 10">
       <r>   -6.9293    1.0000 </r>
       <r>   -6.5655    1.0000 </r>
       <r>   -6.5655    1.0000 </r>
       <r>   -6.5655    1.0000 </r>
       <r>   -3.9070    1.0000 </r>
       <r>   -3.9070    1.0000 </r>
       <r>   -3.9070    1.0000 </r>
       <r>   -3.5002    1.0000 </r>
       <r>    1.3764    0.0000 </r>
       <r>    1.3764    0.0000 </r>
       <r>    1.3764    0.0000 </r>
       <r>    1.9043    0.0000 </r>
       <r>    1.9043    0.0000 </r>
       <r>    1.9043    0.0000 </r>
       <r>    2.1708    0.0000 </r>
       <r>    2.1708    0.0000 </r>
       <r>    4.0424    0.0000 </r>
       <r>    4.6697    0.0000 </r>
       <r>    4.6697    0.0000 </r>
       <r>    4.6697    0.0000 </r>
      </set>
     </set>
    </set>
   </array>
  </eigenvalues>
  <separator name="orbital magnetization" >
   <v name="MAGDIPOLOUT">      0.00000000      0.00000000      0.00000000</v>
  </separator>
  <dos>
   <i name="efermi">      0.73062928 </i>
   <total>
    <array>
     <dimension dim="1">gridpoints</dimension>
     <dimension dim="2">spin</dimension>
     <field>energy</field>
     <field>total</field>
     <field>integrated</field>
     <set>
      <set comment="spin 1">
       <r>   -10.7697     0.0000     0.0000 </r>
       <r>   -10.7065     0.0000     0.0000 </r>
       <r>   -10.6433     0.0000     0.0000 </r>
       <r>   -10.5800     0.0000     0.0000 </r>
       <r>   -10.5168     0.0000     0.0000 </r>
       <r>   -10.4535     0.0000     0.0000 </r>
       <r>   -10.3903     0.0000     0.0000 </r>
       <r>   -10.3271     0.0000     0.0000 </r>
       <r>   -10.2638     0.0000     0.0000 </r>
       <r>   -10.2006     0.0000     0.0000 </r>
       <r>   -10.1373     0.0000     0.0000 </r>
       <r>   -10.0741     0.0000     0.0000 </r>
       <r>   -10.0109     0.0000     0.0000 </r>
       <r>    -9.9476     0.0000     0.0000 </r>
       <r>    -9.8844     0.0000     0.0000 </r>
       <r>    -9.8211     0.0000     0.0000 </r>
       <r>    -9.7579     0.0000     0.0000 </r>
       <r>    -9.6947     0.0000     0.0000 </r>
       <r>    -9.6314     0.0000     0.0000 </r>
       <r>    -9.5682     0.0000     0.0000 </r>
       <r>    -9.5049     0.0000     0.0000 </r>
       <r>    -9.4417     0.0000     0.0000 </r>
       <r>    -9.3785     0.0000     0.0000 </r>
       <r>    -9.3152     0.0001     0.0000 </r>
       <r>    -9.2520     0.0003     0.0000 </r>
       <r>    -9.1887     0.0014     0.0001 </r>
       <r>    -9.1255     0.0052     0.0004 </r>
       <r>    -9.0623     0.0160     0.0015 </r>
       <r>    -8.9990     0.0405     0.0040 </r>
       <r>    -8.9358     0.0862     0.0095 </r>
       <r>    -8.8725     0.1566     0.0194 </r>
       <r>    -8.8093     0.2502     0.0352 </r>
       <r>    -8.7461     0.3641     0.0582 </r>
       <r>    -8.6828     0.4970     0.0896 </r>
       <r>    -8.6196     0.6417     0.1302 </r>
       <r>    -8.5563     0.7771     0.1794 </r>
       <r>    -8.4931     0.8790     0.2350 </r>
       <r>    -8.4299     0.9417     0.2945 </r>
       <r>    -8.3666     0.9817     0.3566 </r>
       <r>    -8.3034     1.0201     0.4211 </r>
       <r>    -8.2401     1.0728     0.4889 </r>
       <r>    -8.1769     1.1509     0.5617 </r>
       <r>    -8.1137     1.2590     0.6413 </r>
       <r>    -8.0504     1.3912     0.7293 </r>
       <r>    -7.9872     1.5329     0.8263 </r>
       <r>    -7.9239     1.6581     0.9311 </r>
       <r>    -7.8607     1.7242     1.0402 </r>
       <r>    -7.7975     1.6947     1.1473 </r>
       <r>    -7.7342     1.5811     1.2473 </r>
       <r>    -7.6710     1.4509     1.3391 </r>
       <r>    -7.6077     1.3907     1.4270 </r>
       <r>    -7.5445     1.4604     1.5194 </r>
       <r>    -7.4813     1.6675     1.6248 </r>
       <r>    -7.4180     1.9658     1.7491 </r>
       <r>    -7.3548     2.2779     1.8932 </r>
       <r>    -7.2915     2.5217     2.0527 </r>
       <r>    -7.2283     2.6275     2.2188 </r>
       <r>    -7.1651     2.5627     2.3809 </r>
       <r>    -7.1018     2.3688     2.5307 </r>
       <r>    -7.0386     2.1644     2.6676 </r>
       <r>    -6.9753     2.0838     2.7994 </r>
       <r>    -6.9121     2.1947     2.9382 </r>
       <r>    -6.8489     2.4572     3.0935 </r>
       <r>    -6.7856     2.7498     3.2674 </r>
       <r>    -6.7224     2.9462     3.4538 </r>
       <r>    -6.6591     2.9970     3.6433 </r>
       <r>    -6.5959     2.9600     3.8305 </r>
       <r>    -6.5327     2.9595     4.0176 </r>
       <r>    -6.4694     3.1026     4.2139 </r>
       <r>    -6.4062     3.4019     4.4290 </r>
       <r>    -6.3429     3.7559     4.6665 </r>
       <r>    -6.2797     4.0177     4.9206 </r>
       <r>    -6.2165     4.0972     5.1797 </r>
       <r>    -6.1532     3.9844     5.4317 </r>
       <r>    -6.0900     3.6851     5.6647 </r>
       <r>    -6.0267     3.1932     5.8667 </r>
       <r>    -5.9635     2.5604     6.0286 </r>
       <r>    -5.9003     1.9485     6.1518 </r>
       <r>    -5.8370     1.5467     6.2496 </r>
       <r>    -5.7738     1.4272     6.3399 </r>
       <r>    -5.7105     1.5052     6.4351 </r>
       <r>    -5.6473     1.6530     6.5396 </r>
       <r>    -5.5841     1.8361     6.6557 </r>
       <r>    -5.5208     2.1160     6.7895 </r>
       <r>    -5.4576     2.5231     6.9491 </r>
       <r>    -5.3943     2.9550     7.1360 </r>
       <r>    -5.3311     3.2132     7.3392 </r>
       <r>    -5.2679     3.1356     7.5375 </r>
       <r>    -5.2046     2.6993     7.7082 </r>
       <r>    -5.1414     2.0275     7.8364 </r>
       <r>    -5.0781     1.3159     7.9196 </r>
       <r>    -5.0149     0.7306     7.9658 </r>
       <r>    -4.9517     0.3439     7.9875 </r>
       <r>    -4.8884     0.1361     7.9962 </r>
       <r>    -4.8252     0.0451     7.9990 </r>
       <r>    -4.7619     0.0127     7.9998 </r>
       <r>    -4.6987     0.0047     8.0001 </r>
       <r>    -4.6355     0.0100     8.0007 </r>
       <r>    -4.5722     0.0394     8.0032 </r>
       <r>    -4.5090     0.1338     8.0117 </r>
       <r>    -4.4457     0.3750     8.0354 </r>
       <r>    -4.3825     0.8667     8.0902 </r>
       <r>    -4.3193     1.6554     8.1949 </r>
       <r>    -4.2560     2.6226     8.3608 </r>
       <r>    -4.1928     3.4744     8.5805 </r>
       <r>    -4.1295     3.9205     8.8284 </r>
       <r>    -4.0663     3.9215     9.0764 </r>
       <r>    -4.0031     3.7362     9.3127 </r>
       <r>    -3.9398     3.6741     9.5450 </r>
       <r>    -3.8766     3.7966     9.7851 </r>
       <r>    -3.8133     3.8844    10.0308 </r>
       <r>    -3.7501     3.7031    10.2650 </r>
       <r>    -3.6869     3.2830    10.4726 </r>
       <r>    -3.6236     2.9281    10.6578 </r>
       <r>    -3.5604     2.9419    10.8438 </r>
       <r>    -3.4971     3.3341    11.0547 </r>
       <r>    -3.4339     3.7825    11.2939 </r>
       <r>    -3.3707     3.8911    11.5399 </r>
       <r>    -3.3074     3.5130    11.7621 </r>
       <r>    -3.2442     2.8458    11.9421 </r>
       <r>    -3.1809     2.2302    12.0831 </r>
       <r>    -3.1177     1.8746    12.2016 </r>
       <r>    -3.0545     1.7680    12.3135 </r>
       <r>    -2.9912     1.8126    12.4281 </r>
       <r>    -2.9280     1.9766    12.5531 </r>
       <r>    -2.8647     2.2858    12.6976 </r>
       <r>    -2.8015     2.6877    12.8676 </r>
       <r>    -2.7383     2.9835    13.0563 </r>
       <r>    -2.6750     2.9405    13.2422 </r>
       <r>    -2.6118     2.4841    13.3993 </r>
       <r>    -2.5485     1.7674    13.5111 </r>
       <r>    -2.4853     1.0509    13.5776 </r>
       <r>    -2.4221     0.5249    13.6108 </r>
       <r>    -2.3588     0.2400    13.6259 </r>
       <r>    -2.2956     0.1629    13.6362 </r>
       <r>    -2.2323     0.2623    13.6528 </r>
       <r>    -2.1691     0.5396    13.6869 </r>
       <r>    -2.1059     0.9905    13.7496 </r>
       <r>    -2.0426     1.5413    13.8471 </r>
       <r>    -1.9794     2.0306    13.9755 </r>
       <r>    -1.9161     2.2719    14.1191 </r>
       <r>    -1.8529     2.1646    14.2560 </r>
       <r>    -1.7897     1.7641    14.3676 </r>
       <r>    -1.7264     1.2526    14.4468 </r>
       <r>    -1.6632     0.8333    14.4995 </r>
       <r>    -1.5999     0.6303    14.5394 </r>
       <r>    -1.5367     0.6581    14.5810 </r>
       <r>    -1.4735     0.8654    14.6357 </r>
       <r>    -1.4102     1.2033    14.7118 </r>
       <r>    -1.3470     1.6598    14.8168 </r>
       <r>    -1.2837     2.2329    14.9580 </r>
       <r>    -1.2205     2.8887    15.1407 </r>
       <r>    -1.1573     3.5614    15.3659 </r>
       <r>    -1.0940     4.1778    15.6301 </r>
       <r>    -1.0308     4.6494    15.9241 </r>
       <r>    -0.9675     4.8595    16.2314 </r>
       <r>    -0.9043     4.7181    16.5298 </r>
       <r>    -0.8411     4.2609    16.7993 </r>
       <r>    -0.7778     3.6725    17.0315 </r>
       <r>    -0.7146     3.2044    17.2342 </r>
       <r>    -0.6513     3.0662    17.4281 </r>
       <r>    -0.5881     3.3455    17.6396 </r>
       <r>    -0.5249     3.9434    17.8890 </r>
       <r>    -0.4616     4.5744    18.1783 </r>
       <r>    -0.3984     4.9145    18.4891 </r>
       <r>    -0.3351     4.8202    18.7939 </r>
       <r>    -0.2719     4.4088    19.0727 </r>
       <r>    -0.2087     3.9309    19.3213 </r>
       <r>    -0.1454     3.6024    19.5492 </r>
       <r>    -0.0822     3.5526    19.7738 </r>
       <r>    -0.0189     3.8385    20.0166 </r>
       <r>     0.0443     4.4073    20.2953 </r>
       <r>     0.1075     5.0410    20.6141 </r>
       <r>     0.1708     5.4349    20.9578 </r>
       <r>     0.2340     5.4269    21.3010 </r>
       <r>     0.2973     5.1652    21.6276 </r>
       <r>     0.3605     4.9998    21.9438 </r>
       <r>     0.4237     5.1654    22.2705 </r>
       <r>     0.4870     5.5681    22.6226 </r>
       <r>     0.5502     5.8940    22.9953 </r>
       <r>     0.6135     5.9021    23.3686 </r>
       <r>     0.6767     5.5884    23.7220 </r>
       <r>     0.7399     5.1200    24.0458 </r>
       <r>     0.8032     4.7025    24.3432 </r>
       <r>     0.8664     4.4922    24.6273 </r>
       <r>     0.9297     4.5175    24.9129 </r>
       <r>     0.9929     4.6376    25.2062 </r>
       <r>     1.0561     4.6526    25.5005 </r>
       <r>     1.1194     4.5029    25.7852 </r>
       <r>     1.1826     4.3173    26.0582 </r>
       <r>     1.2459     4.2433    26.3266 </r>
       <r>     1.3091     4.2823    26.5974 </r>
       <r>     1.3723     4.3354    26.8716 </r>
       <r>     1.4356     4.3692    27.1479 </r>
       <r>     1.4988     4.4644    27.4302 </r>
       <r>     1.5621     4.6893    27.7268 </r>
       <r>     1.6253     4.9700    28.0411 </r>
       <r>     1.6885     5.1238    28.3651 </r>
       <r>     1.7518     5.0188    28.6825 </r>
       <r>     1.8150     4.6702    28.9778 </r>
       <r>     1.8783     4.1794    29.2421 </r>
       <r>     1.9415     3.6188    29.4710 </r>
       <r>     2.0047     3.0178    29.6618 </r>
       <r>     2.0680     2.4421    29.8163 </r>
       <r>     2.1312     2.0312    29.9447 </r>
       <r>     2.1945     1.9248    30.0664 </r>
       <r>     2.2577     2.1480    30.2023 </r>
       <r>     2.3209     2.5568    30.3640 </r>
       <r>     2.3842     2.9025    30.5475 </r>
       <r>     2.4474     2.9904    30.7366 </r>
       <r>     2.5107     2.8051    30.9140 </r>
       <r>     2.5739     2.4831    31.0711 </r>
       <r>     2.6371     2.1634    31.2079 </r>
       <r>     2.7004     1.8816    31.3269 </r>
       <r>     2.7636     1.5944    31.4277 </r>
       <r>     2.8269     1.2702    31.5080 </r>
       <r>     2.8901     0.9397    31.5675 </r>
       <r>     2.9533     0.6780    31.6103 </r>
       <r>     3.0166     0.5485    31.6450 </r>
       <r>     3.0798     0.5542    31.6801 </r>
       <r>     3.1431     0.6308    31.7200 </r>
       <r>     3.2063     0.6930    31.7638 </r>
       <r>     3.2695     0.6982    31.8079 </r>
       <r>     3.3328     0.6718    31.8504 </r>
       <r>     3.3960     0.6713    31.8929 </r>
       <r>     3.4593     0.7350    31.9394 </r>
       <r>     3.5225     0.8633    31.9940 </r>
       <r>     3.5857     1.0295    32.0591 </r>
       <r>     3.6490     1.1876    32.1342 </r>
       <r>     3.7122     1.2804    32.2151 </r>
       <r>     3.7755     1.2741    32.2957 </r>
       <r>     3.8387     1.2031    32.3718 </r>
       <r>     3.9019     1.1674    32.4456 </r>
       <r>     3.9652     1.2571    32.5251 </r>
       <r>     4.0284     1.4661    32.6178 </r>
       <r>     4.0917     1.6935    32.7249 </r>
       <r>     4.1549     1.8500    32.8419 </r>
       <r>     4.2181     1.9579    32.9658 </r>
       <r>     4.2814     2.1233    33.1000 </r>
       <r>     4.3446     2.4119    33.2526 </r>
       <r>     4.4079     2.7868    33.4288 </r>
       <r>     4.4711     3.1803    33.6299 </r>
       <r>     4.5343     3.5809    33.8564 </r>
       <r>     4.5976     4.0019    34.1095 </r>
       <r>     4.6608     4.3967    34.3875 </r>
       <r>     4.7241     4.6765    34.6832 </r>
       <r>     4.7873     4.8215    34.9882 </r>
       <r>     4.8505     4.9171    35.2991 </r>
       <r>     4.9138     5.0460    35.6182 </r>
       <r>     4.9770     5.1680    35.9450 </r>
       <r>     5.0403     5.1523    36.2709 </r>
       <r>     5.1035     4.9381    36.5832 </r>
       <r>     5.1667     4.6245    36.8756 </r>
       <r>     5.2300     4.3692    37.1519 </r>
       <r>     5.2932     4.2273    37.4193 </r>
       <r>     5.3565     4.1347    37.6807 </r>
       <r>     5.4197     4.0148    37.9346 </r>
       <r>     5.4829     3.8334    38.1771 </r>
       <r>     5.5462     3.5639    38.4024 </r>
       <r>     5.6094     3.1857    38.6039 </r>
       <r>     5.6727     2.7474    38.7777 </r>
       <r>     5.7359     2.3658    38.9273 </r>
       <r>     5.7991     2.1222    39.0615 </r>
       <r>     5.8624     1.9878    39.1872 </r>
       <r>     5.9256     1.8792    39.3060 </r>
       <r>     5.9889     1.7615    39.4174 </r>
       <r>     6.0521     1.6678    39.5229 </r>
       <r>     6.1153     1.6246    39.6256 </r>
       <r>     6.1786     1.5858    39.7259 </r>
       <r>     6.2418     1.4574    39.8181 </r>
       <r>     6.3051     1.1893    39.8933 </r>
       <r>     6.3683     0.8300    39.9458 </r>
       <r>     6.4315     0.4855    39.9765 </r>
       <r>     6.4948     0.2356    39.9914 </r>
       <r>     6.5580     0.0944    39.9974 </r>
       <r>     6.6213     0.0311    39.9993 </r>
       <r>     6.6845     0.0084    39.9999 </r>
       <r>     6.7477     0.0019    40.0000 </r>
       <r>     6.8110     0.0003    40.0000 </r>
       <r>     6.8742     0.0001    40.0000 </r>
       <r>     6.9375     0.0000    40.0000 </r>
       <r>     7.0007     0.0000    40.0000 </r>
       <r>     7.0639     0.0000    40.0000 </r>
       <r>     7.1272     0.0000    40.0000 </r>
       <r>     7.1904     0.0000    40.0000 </r>
       <r>     7.2537     0.0000    40.0000 </r>
       <r>     7.3169     0.0000    40.0000 </r>
       <r>     7.3801     0.0000    40.0000 </r>
       <r>     7.4434     0.0000    40.0000 </r>
       <r>     7.5066     0.0000    40.0000 </r>
       <r>     7.5699     0.0000    40.0000 </r>
       <r>     7.6331     0.0000    40.0000 </r>
       <r>     7.6963     0.0000    40.0000 </r>
       <r>     7.7596     0.0000    40.0000 </r>
       <r>     7.8228     0.0000    40.0000 </r>
       <r>     7.8861     0.0000    40.0000 </r>
       <r>     7.9493     0.0000    40.0000 </r>
       <r>     8.0125     0.0000    40.0000 </r>
       <r>     8.0758     0.0000    40.0000 </r>
       <r>     8.1390     0.0000    40.0000 </r>
       <r>     8.2023     0.0000    40.0000 </r>
      </set>
     </set>
    </array>
   </total>
  </dos>
 </calculation>
 <structure name="finalpos" >
  <crystal>
   <varray name="basis" >
    <v>       5.76286300       0.00000000       0.00000000 </v>
    <v>       0.00000000       5.76286300       0.00000000 </v>
    <v>       0.00000000       0.00000000       5.76286300 </v>
   </varray>
   <i name="volume">    191.38808007 </i>
   <varray name="rec_basis" >
    <v>       0.17352486       0.00000000       0.00000000 </v>
    <v>       0.00000000       0.17352486       0.00000000 </v>
    <v>       0.00000000       0.00000000       0.17352486 </v>
   </varray>
  </crystal>
  <varray name="positions" >
   <v>       0.75000000       0.75000000       0.75000000 </v>
   <v>       0.50000000       0.00000000       0.00000000 </v>
   <v>       0.75000000       0.25000000       0.25000000 </v>
   <v>       0.50000000       0.50000000       0.50000000 </v>
   <v>       0.25000000       0.75000000       0.25000000 </v>
   <v>       0.00000000       0.00000000       0.50000000 </v>
   <v>       0.25000000       0.25000000       0.75000000 </v>
   <v>       0.00000000       0.50000000       0.00000000 </v>
  </varray>
 </structure>
</modeling>
