    2    2    1    1
  0.2957281E+02  0.4373332E-09  0.4373332E-09  0.4373333E-09  0.5000000E-15
  1.000000000000000E-004
  CAR 
 unknown system                          
   18  320   80
 
  0.0000000E+00  0.0000000E+00  0.0000000E+00  0.3125000E-02
   1       -8.716257
   2       -3.983706
   3       -3.983704
   4       -3.983701
   5       -3.774158
   6       -3.774155
   7        2.812322
   8        2.812322
   9        2.812323
  10        3.891582
  11        7.246736
  12        7.246737
  13        7.246738
  14       10.098866
  15       12.327196
  16       12.327198
  17       13.391969
  18       13.391970
  19       13.391972
  20       16.180190
  21       24.266139
  22       24.266142
  23       24.266145
  24       24.817562
  25       24.817563
  26       24.817564
  27       26.037996
  28       26.037998
  29       26.037999
  30       26.429992
  31       26.429994
  32       32.686329
  33       33.073475
  34       33.073476
  35       33.073478
  36       33.531166
  37       34.395058
  38       34.395060
  39       35.621120
  40       35.621123
  41       35.621124
  42       37.370529
  43       37.370537
  44       37.370539
  45       38.934132
  46       38.934135
  47       38.934139
  48       39.141261
  49       39.141264
  50       39.141265
  51       39.594303
  52       39.594306
  53       39.594312
  54       41.301646
  55       41.301651
  56       42.413375
  57       44.553365
  58       44.553371
  59       44.553372
  60       45.267776
  61       45.267782
  62       45.267784
  63       46.685907
  64       49.021174
  65       52.935669
  66       52.935674
  67       53.925867
  68       53.925871
  69       53.925871
  70       55.264631
  71       55.264632
  72       55.264638
  73       56.041258
  74       56.041259
  75       56.041268
  76       58.152307
  77       60.834507
  78       61.271224
  79       61.271232
  80       64.237542
 
  0.0000000E+00  0.1282051E-01  0.1282051E-01  0.3125000E-02
   1       -8.714836
   2       -3.983666
   3       -3.983523
   4       -3.983519
   5       -3.774224
   6       -3.774123
   7        2.779975
   8        2.806990
   9        2.806991
  10        3.924154
  11        7.237728
  12        7.254615
  13        7.254617
  14       10.113118
  15       12.278603
  16       12.329174
  17       13.396633
  18       13.396636
  19       13.432759
  20       16.199939
  21       24.202636
  22       24.202639
  23       24.222632
  24       24.809688
  25       24.825293
  26       24.825295
  27       25.951643
  28       26.096780
  29       26.096782
  30       26.476000
  31       26.513570
  32       32.670707
  33       33.022322
  34       33.052355
  35       33.052356
  36       33.536752
  37       34.388183
  38       34.438637
  39       35.605158
  40       35.605160
  41       35.641657
  42       37.327109
  43       37.327115
  44       37.377923
  45       38.907645
  46       38.907649
  47       38.921190
  48       39.135864
  49       39.200979
  50       39.200983
  51       39.482033
  52       39.648493
  53       39.648500
  54       41.318086
  55       41.410857
  56       42.417810
  57       44.408082
  58       44.408086
  59       44.553015
  60       45.225378
  61       45.424394
  62       45.424398
  63       46.751970
  64       49.045741
  65       52.871044
  66       52.908402
  67       53.855964
  68       53.855968
  69       53.938370
  70       55.269824
  71       55.308466
  72       55.308469
  73       56.013614
  74       56.069937
  75       56.069946
  76       58.207785
  77       60.838691
  78       61.283076
  79       61.296168
  80       64.219920
 
  0.0000000E+00  0.2564103E-01  0.2564103E-01  0.3125000E-02
   1       -8.710577
   2       -3.983548
   3       -3.982978
   4       -3.982974
   5       -3.774429
   6       -3.774022
   7        2.692630
   8        2.791123
   9        2.791124
  10        4.012090
  11        7.211313
  12        7.278114
  13        7.278116
  14       10.155226
  15       12.151855
  16       12.335105
  17       13.410604
  18       13.410607
  19       13.536245
  20       16.259121
  21       24.036696
  22       24.036699
  23       24.101684
  24       24.783505
  25       24.841555
  26       24.841557
  27       25.787283
  28       26.255078
  29       26.255080
  30       26.604281
  31       26.672108
  32       32.621405
  33       32.886780
  34       32.989177
  35       32.989179
  36       33.556458
  37       34.367924
  38       34.552474
  39       35.558075
  40       35.558077
  41       35.700931
  42       37.210021
  43       37.210027
  44       37.399147
  45       38.874720
  46       38.889331
  47       38.889335
  48       39.121095
  49       39.217259
  50       39.299124
  51       39.299127
  52       39.816384
  53       39.816389
  54       41.366468
  55       41.668201
  56       42.435009
  57       44.127715
  58       44.127719
  59       44.551450
  60       45.123977
  61       45.738794
  62       45.738797
  63       46.927811
  64       49.118394
  65       52.688259
  66       52.828026
  67       53.675395
  68       53.675399
  69       53.967847
  70       55.284681
  71       55.404197
  72       55.404200
  73       55.944395
  74       56.162297
  75       56.162305
  76       58.354715
  77       60.847750
  78       61.322029
  79       61.370093
  80       64.144044
 
  0.0000000E+00  0.3846154E-01  0.3846154E-01  0.3125000E-02
   1       -8.703493
   2       -3.983345
   3       -3.982071
   4       -3.982068
   5       -3.774767
   6       -3.773855
   7        2.569036
   8        2.765111
   9        2.765112
  10        4.136403
  11        7.169196
  12        7.316842
  13        7.316844
  14       10.223388
  15       11.979849
  16       12.344991
  17       13.433892
  18       13.433895
  19       13.670178
  20       16.357437
  21       23.809050
  22       23.809053
  23       23.924196
  24       24.730935
  25       24.859919
  26       24.859922
  27       25.618382
  28       26.478683
  29       26.478685
  30       26.793851
  31       26.840549
  32       32.530586
  33       32.703275
  34       32.884666
  35       32.884668
  36       33.596714
  37       34.335282
  38       34.705865
  39       35.482312
  40       35.482314
  41       35.792886
  42       37.047629
  43       37.047635
  44       37.431592
  45       38.718167
  46       38.911017
  47       38.911022
  48       38.969132
  49       39.101017
  50       39.388611
  51       39.388614
  52       40.081245
  53       40.081248
  54       41.444306
  55       41.949090
  56       42.492297
  57       43.823620
  58       43.823623
  59       44.543129
  60       45.017221
  61       46.100222
  62       46.100226
  63       47.174346
  64       49.236222
  65       52.409853
  66       52.698507
  67       53.432441
  68       53.432446
  69       54.000935
  70       55.307611
  71       55.495427
  72       55.495431
  73       55.860592
  74       56.326656
  75       56.326663
  76       58.551173
  77       60.857543
  78       61.397303
  79       61.490036
  80       64.028025
 
  0.0000000E+00  0.5128205E-01  0.5128205E-01  0.3125000E-02
   1       -8.693611
   2       -3.983049
   3       -3.980806
   4       -3.980803
   5       -3.775232
   6       -3.773622
   7        2.424257
   8        2.729561
   9        2.729562
  10        4.281608
  11        7.113846
  12        7.370176
  13        7.370177
  14       10.314870
  15       11.785687
  16       12.358833
  17       13.466492
  18       13.466495
  19       13.812818
  20       16.494040
  21       23.547185
  22       23.547188
  23       23.709939
  24       24.639298
  25       24.879678
  26       24.879681
  27       25.473584
  28       26.740404
  29       26.740407
  30       27.002905
  31       27.024917
  32       32.377887
  33       32.515170
  34       32.740045
  35       32.740046
  36       33.662416
  37       34.291827
  38       34.874906
  39       35.381527
  40       35.381529
  41       35.909553
  42       36.865756
  43       36.865761
  44       37.470972
  45       38.373104
  46       38.868544
  47       38.968805
  48       38.968810
  49       39.081770
  50       39.476937
  51       39.476940
  52       40.407060
  53       40.407063
  54       41.548361
  55       42.110047
  56       42.672790
  57       43.522541
  58       43.522544
  59       44.510603
  60       44.964062
  61       46.483009
  62       46.483013
  63       47.463160
  64       49.394757
  65       52.057244
  66       52.525413
  67       53.158533
  68       53.158537
  69       54.030029
  70       55.336723
  71       55.559324
  72       55.559329
  73       55.782864
  74       56.554286
  75       56.554292
  76       58.753960
  77       60.859835
  78       61.518012
  79       61.651730
  80       63.873672
 
  0.0000000E+00  0.6410256E-01  0.6410256E-01  0.3125000E-02
   1       -8.680963
   2       -3.982646
   3       -3.979188
   4       -3.979184
   5       -3.775817
   6       -3.773326
   7        2.267472
   8        2.685259
   9        2.685260
  10        4.437909
  11        7.048123
  12        7.437317
  13        7.437318
  14       10.426126
  15       11.583104
  16       12.376622
  17       13.508408
  18       13.508410
  19       13.953337
  20       16.667282
  21       23.266236
  22       23.266239
  23       23.472939
  24       24.498606
  25       24.901726
  26       24.901730
  27       25.368817
  28       27.023992
  29       27.023994
  30       27.153839
  31       27.283216
  32       32.156008
  33       32.346576
  34       32.557311
  35       32.557312
  36       33.754664
  37       34.239413
  38       35.044721
  39       35.260587
  40       35.260589
  41       36.043065
  42       36.681086
  43       36.681091
  44       37.511496
  45       37.975815
  46       38.808186
  47       39.054722
  48       39.054727
  49       39.070860
  50       39.572007
  51       39.572011
  52       40.767774
  53       40.767776
  54       41.675055
  55       42.118441
  56       42.970124
  57       43.234610
  58       43.234613
  59       44.449250
  60       45.003844
  61       46.879294
  62       46.879297
  63       47.777737
  64       49.588150
  65       51.649559
  66       52.314815
  67       52.870361
  68       52.870365
  69       54.053266
  70       55.370222
  71       55.600294
  72       55.600300
  73       55.720867
  74       56.824349
  75       56.824354
  76       58.932181
  77       60.851105
  78       61.683874
  79       61.849131
  80       63.692423
 
  0.0000000E+00  0.7692308E-01  0.7692308E-01  0.3125000E-02
   1       -8.665593
   2       -3.982121
   3       -3.977221
   4       -3.977217
   5       -3.776512
   6       -3.772967
   7        2.103919
   8        2.633110
   9        2.633110
  10        4.599197
  11        6.974972
  12        7.517343
  13        7.517344
  14       10.552117
  15       11.381957
  16       12.398352
  17       13.559642
  18       13.559645
  19       14.087249
  20       16.874612
  21       22.974403
  22       22.974406
  23       23.222192
  24       24.311080
  25       24.926781
  26       24.926785
  27       25.304873
  28       27.290533
  29       27.320096
  30       27.320098
  31       27.559601
  32       31.900732
  33       32.174394
  34       32.339104
  35       32.339105
  36       33.871408
  37       34.180023
  38       35.124850
  39       35.124852
  40       35.203622
  41       36.186500
  42       36.502300
  43       36.502305
  44       37.546472
  45       37.573103
  46       38.761629
  47       39.076433
  48       39.161849
  49       39.161853
  50       39.675728
  51       39.675731
  52       41.145690
  53       41.145692
  54       41.821127
  55       42.051245
  56       42.968767
  57       42.968770
  58       43.266802
  59       44.404537
  60       45.130792
  61       47.285250
  62       47.285254
  63       48.107527
  64       49.807780
  65       51.206200
  66       52.072616
  67       52.577296
  68       52.577300
  69       54.071429
  70       55.406827
  71       55.627241
  72       55.627247
  73       55.676683
  74       57.119011
  75       57.119017
  76       59.068796
  77       60.827736
  78       61.872744
  79       62.075100
  80       63.508834
 
  0.0000000E+00  0.8974359E-01  0.8974359E-01  0.3125000E-02
   1       -8.647552
   2       -3.981455
   3       -3.974912
   4       -3.974909
   5       -3.777304
   6       -3.772549
   7        1.936641
   8        2.574087
   9        2.574088
  10        4.761252
  11        6.897259
  12        7.609263
  13        7.609265
  14       10.681625
  15       11.195881
  16       12.424025
  17       13.620199
  18       13.620202
  19       14.213545
  20       17.112761
  21       22.676356
  22       22.676360
  23       22.963334
  24       24.088797
  25       24.955238
  26       24.955242
  27       25.271849
  28       27.410944
  29       27.623139
  30       27.623142
  31       27.848224
  32       31.632522
  33       31.988289
  34       32.088814
  35       32.088815
  36       34.008941
  37       34.115648
  38       34.979583
  39       34.979586
  40       35.338896
  41       36.332994
  42       36.332999
  43       36.334916
  44       37.181865
  45       37.569305
  46       38.731225
  47       39.106105
  48       39.284243
  49       39.284248
  50       39.787213
  51       39.787217
  52       41.519624
  53       41.519626
  54       41.944087
  55       41.983803
  56       42.742552
  57       42.742556
  58       43.468335
  59       44.452194
  60       45.328466
  61       47.697781
  62       47.697784
  63       48.443092
  64       50.029749
  65       50.761412
  66       51.804162
  67       52.285817
  68       52.285822
  69       54.086605
  70       55.445747
  71       55.645988
  72       55.645995
  73       55.648951
  74       57.426993
  75       57.426999
  76       59.159930
  77       60.788275
  78       62.027705
  79       62.319331
  80       63.347932
 
  0.0000000E+00  0.1025641E+00  0.1025641E+00  0.3125000E-02
   1       -8.626904
   2       -3.980625
   3       -3.972271
   4       -3.972268
   5       -3.778175
   6       -3.772073
   7        1.767488
   8        2.509186
   9        2.509186
  10        4.920644
  11        6.817734
  12        7.712061
  13        7.712063
  14       10.764340
  15       11.076617
  16       12.453654
  17       13.690080
  18       13.690083
  19       14.333045
  20       17.378074
  21       22.374888
  22       22.374891
  23       22.699952
  24       23.844003
  25       24.987285
  26       24.987289
  27       25.259175
  28       27.513089
  29       27.929395
  30       27.929398
  31       28.145274
  32       31.359647
  33       31.788149
  34       31.810372
  35       31.810372
  36       34.048229
  37       34.162642
  38       34.829312
  39       34.829315
  40       35.431281
  41       36.174054
  42       36.174058
  43       36.484766
  44       36.821071
  45       37.575055
  46       38.722543
  47       39.165516
  48       39.415811
  49       39.415816
  50       39.904495
  51       39.904499
  52       41.812616
  53       41.831739
  54       41.831741
  55       42.160892
  56       42.613750
  57       42.613754
  58       43.524911
  59       44.637760
  60       45.586182
  61       48.113031
  62       48.113035
  63       48.767648
  64       50.060654
  65       50.525630
  66       51.514095
  67       52.001889
  68       52.001893
  69       54.101548
  70       55.486581
  71       55.635254
  72       55.659574
  73       55.659581
  74       57.741404
  75       57.741410
  76       59.209714
  77       60.729986
  78       62.064653
  79       62.565330
  80       63.272202
 
  0.0000000E+00  0.1153846E+00  0.1153846E+00  0.3125000E-02
   1       -8.603723
   2       -3.979608
   3       -3.969308
   4       -3.969304
   5       -3.779108
   6       -3.771544
   7        1.597638
   8        2.439384
   9        2.439384
  10        5.074086
  11        6.739107
  12        7.824736
  13        7.824737
  14       10.687232
  15       11.138340
  16       12.487196
  17       13.769275
  18       13.769278
  19       14.447396
  20       17.666855
  21       22.071793
  22       22.071797
  23       22.434398
  24       23.585283
  25       25.022984
  26       25.022988
  27       25.259662
  28       27.594567
  29       28.235976
  30       28.235979
  31       28.447827
  32       31.087641
  33       31.508058
  34       31.508059
  35       31.575602
  36       33.979463
  37       34.327071
  38       34.677572
  39       34.677575
  40       35.447007
  41       36.025205
  42       36.025210
  43       36.507687
  44       36.650056
  45       37.561637
  46       38.740279
  47       39.257038
  48       39.548726
  49       39.548731
  50       40.025764
  51       40.025768
  52       41.668123
  53       41.936523
  54       41.936526
  55       42.350377
  56       42.731090
  57       42.731094
  58       43.482026
  59       44.914655
  60       45.894399
  61       48.524722
  62       48.524726
  63       49.007031
  64       49.746688
  65       50.726079
  66       51.206383
  67       51.733339
  68       51.733344
  69       54.119724
  70       55.528993
  71       55.633025
  72       55.669348
  73       55.669356
  74       58.057671
  75       58.057691
  76       59.225094
  77       60.649345
  78       61.962201
  79       62.792945
  80       63.303904
 
  0.0000000E+00  0.1282051E+00  0.1282051E+00  0.3125000E-02
   1       -8.578096
   2       -3.978376
   3       -3.966033
   4       -3.966029
   5       -3.780077
   6       -3.770965
   7        1.427884
   8        2.365620
   9        2.365620
  10        5.217981
  11        6.664196
  12        7.946324
  13        7.946325
  14       10.533977
  15       11.298540
  16       12.524661
  17       13.857780
  18       13.857782
  19       14.558504
  20       17.975604
  21       21.768251
  22       21.768254
  23       22.168272
  24       23.318187
  25       25.062327
  26       25.062331
  27       25.269031
  28       27.652212
  29       28.540187
  30       28.540189
  31       28.753851
  32       30.821552
  33       31.186423
  34       31.186423
  35       31.352338
  36       33.911089
  37       34.495582
  38       34.526876
  39       34.526879
  40       35.341734
  41       35.885920
  42       35.885925
  43       36.313765
  44       36.803558
  45       37.530023
  46       38.786549
  47       39.379932
  48       39.671211
  49       39.671215
  50       40.150973
  51       40.150977
  52       41.520607
  53       41.862896
  54       41.862899
  55       42.550917
  56       43.072272
  57       43.072275
  58       43.398895
  59       45.225706
  60       46.240867
  61       48.855634
  62       48.920718
  63       48.920721
  64       49.739041
  65       50.884356
  66       51.015956
  67       51.493351
  68       51.493355
  69       54.145698
  70       55.572921
  71       55.640192
  72       55.675765
  73       55.675773
  74       58.372330
  75       58.372338
  76       59.212141
  77       60.534977
  78       61.759663
  79       62.848030
  80       63.034887
 
  0.0000000E+00  0.1410256E+00  0.1410256E+00  0.3125000E-02
   1       -8.550116
   2       -3.976904
   3       -3.962461
   4       -3.962457
   5       -3.781055
   6       -3.770339
   7        1.258784
   8        2.288772
   9        2.288773
  10        5.348098
  11        6.596114
  12        8.075930
  13        8.075931
  14       10.376920
  15       11.486253
  16       12.566047
  17       13.955583
  18       13.955586
  19       14.668212
  20       18.301106
  21       21.465105
  22       21.465108
  23       21.902711
  24       23.046484
  25       25.105265
  26       25.105269
  27       25.284730
  28       27.681778
  29       28.838735
  30       28.838738
  31       29.061570
  32       30.566656
  33       30.850684
  34       30.850685
  35       31.120384
  36       33.844751
  37       34.378979
  38       34.378982
  39       34.658882
  40       35.114549
  41       35.755911
  42       35.755916
  43       36.223510
  44       36.967736
  45       37.483137
  46       38.859837
  47       39.531365
  48       39.765655
  49       39.765659
  50       40.283941
  51       40.283945
  52       41.379605
  53       41.769353
  54       41.769356
  55       42.761386
  56       43.304269
  57       43.488403
  58       43.488406
  59       45.546309
  60       46.607580
  61       48.404649
  62       49.275404
  63       49.275408
  64       50.020790
  65       50.550809
  66       51.308534
  67       51.308538
  68       51.322610
  69       54.185634
  70       55.618287
  71       55.655125
  72       55.678696
  73       55.678703
  74       58.682257
  75       58.682298
  76       59.176004
  77       60.383424
  78       61.535906
  79       62.645440
  80       62.653907
 
  0.0000000E+00  0.1538462E+00  0.1538462E+00  0.3125000E-02
   1       -8.519897
   2       -3.975164
   3       -3.958605
   4       -3.958602
   5       -3.782006
   6       -3.769670
   7        1.090750
   8        2.209651
   9        2.209652
  10        5.459406
  11        6.538365
  12        8.212715
  13        8.212717
  14       10.231564
  15       11.687632
  16       12.611328
  17       14.062665
  18       14.062668
  19       14.778155
  20       18.640371
  21       21.162963
  22       21.162966
  23       21.638515
  24       22.773044
  25       25.151665
  26       25.151669
  27       25.305144
  28       27.677875
  29       29.125647
  30       29.125650
  31       29.369241
  32       30.328070
  33       30.508181
  34       30.508182
  35       30.882347
  36       33.782121
  37       34.235077
  38       34.235079
  39       34.762679
  40       34.863617
  41       35.635134
  42       35.635139
  43       36.196170
  44       37.138014
  45       37.424575
  46       38.954945
  47       39.707700
  48       39.811949
  49       39.811952
  50       40.431354
  51       40.431359
  52       41.254830
  53       41.714669
  54       41.714671
  55       42.980853
  56       43.210408
  57       43.930321
  58       43.930323
  59       45.867321
  60       46.950489
  61       47.936577
  62       49.536961
  63       49.536964
  64       50.208091
  65       50.352544
  66       51.231504
  67       51.231508
  68       51.629549
  69       54.247768
  70       55.664989
  71       55.676750
  72       55.677562
  73       55.677569
  74       58.984066
  75       58.984154
  76       59.117717
  77       60.190117
  78       61.320935
  79       62.225797
  80       62.240506
 
  0.0000000E+00  0.1666667E+00  0.1666667E+00  0.3125000E-02
   1       -8.487564
   2       -3.973129
   3       -3.954484
   4       -3.954481
   5       -3.782891
   6       -3.768963
   7        0.924100
   8        2.128996
   9        2.128996
  10        5.546394
  11        6.494523
  12        8.355917
  13        8.355919
  14       10.103955
  15       11.898570
  16       12.660486
  17       14.178997
  18       14.179000
  19       14.889723
  20       18.990425
  21       20.862283
  22       20.862286
  23       21.376295
  24       22.500477
  25       25.201372
  26       25.201376
  27       25.329136
  28       27.634480
  29       29.382107
  30       29.382110
  31       29.675103
  32       30.109020
  33       30.178547
  34       30.178548
  35       30.642891
  36       33.724952
  37       34.096095
  38       34.096097
  39       34.479739
  40       34.948506
  41       35.523958
  42       35.523963
  43       36.201298
  44       37.311956
  45       37.357713
  46       39.063809
  47       39.798870
  48       39.798872
  49       39.905522
  50       40.596993
  51       40.596998
  52       41.156714
  53       41.716468
  54       41.716470
  55       43.123216
  56       43.208558
  57       44.384517
  58       44.384520
  59       46.177406
  60       47.027562
  61       47.740698
  62       49.639617
  63       49.639620
  64       49.858105
  65       50.687492
  66       51.328793
  67       51.328796
  68       51.925196
  69       54.342396
  70       55.671414
  71       55.671421
  72       55.704726
  73       55.712850
  74       59.035335
  75       59.273288
  76       59.273395
  77       59.965277
  78       61.155708
  79       61.808585
  80       61.836168
 
  0.0000000E+00  0.1794872E+00  0.1794872E+00  0.3125000E-02
   1       -8.453243
   2       -3.970776
   3       -3.950116
   4       -3.950112
   5       -3.783659
   6       -3.768223
   7        0.759098
   8        2.047478
   9        2.047478
  10        5.604414
  11        6.467007
  12        8.504855
  13        8.504857
  14        9.998226
  15       12.117092
  16       12.713524
  17       14.304549
  18       14.304552
  19       15.004087
  20       19.347845
  21       20.563465
  22       20.563468
  23       21.116559
  24       22.231846
  25       25.254209
  26       25.254213
  27       25.355808
  28       27.546614
  29       29.494408
  30       29.494409
  31       29.907017
  32       29.975791
  33       29.975792
  34       29.977127
  35       30.412017
  36       33.675402
  37       33.962945
  38       33.962947
  39       34.155213
  40       35.032285
  41       35.423349
  42       35.423354
  43       36.233596
  44       37.285413
  45       37.485979
  46       39.177143
  47       39.730952
  48       39.730955
  49       40.121932
  50       40.778820
  51       40.778825
  52       41.096481
  53       41.774645
  54       41.774648
  55       43.046027
  56       43.443951
  57       44.845726
  58       44.845729
  59       46.361914
  60       46.752170
  61       48.022942
  62       49.502731
  63       49.581264
  64       49.581268
  65       51.009812
  66       51.603649
  67       51.603651
  68       52.200188
  69       54.480297
  70       55.659030
  71       55.659038
  72       55.740042
  73       55.761638
  74       58.920005
  75       59.542198
  76       59.543111
  77       59.731026
  78       60.930699
  79       61.395892
  80       61.412088
 
  0.0000000E+00  0.1923077E+00  0.1923077E+00  0.3125000E-02
   1       -8.417092
   2       -3.968086
   3       -3.945521
   4       -3.945518
   5       -3.784253
   6       -3.767454
   7        0.595967
   8        1.965698
   9        1.965698
  10        5.631969
  11        6.454944
  12        8.658902
  13        8.658904
  14        9.917813
  15       12.341892
  16       12.770407
  17       14.439272
  18       14.439274
  19       15.122204
  20       19.707593
  21       20.266767
  22       20.266770
  23       20.859658
  24       21.971813
  25       25.309888
  26       25.309892
  27       25.384267
  28       27.412063
  29       29.264889
  30       29.264890
  31       29.707510
  32       30.096813
  33       30.096816
  34       30.208253
  35       30.272817
  36       33.635911
  37       33.835874
  38       33.836533
  39       33.836535
  40       35.068757
  41       35.334504
  42       35.334510
  43       36.294560
  44       37.209879
  45       37.655325
  46       39.286721
  47       39.622172
  48       39.622175
  49       40.354615
  50       40.972060
  51       40.972066
  52       41.084972
  53       41.879735
  54       41.879739
  55       42.980772
  56       43.686438
  57       45.310943
  58       45.310946
  59       45.982521
  60       46.926319
  61       48.418698
  62       49.143347
  63       49.426983
  64       49.426987
  65       51.306192
  66       51.991944
  67       51.991947
  68       52.450538
  69       54.668027
  70       55.638779
  71       55.638786
  72       55.786178
  73       55.810937
  74       58.758447
  75       59.519724
  76       59.773774
  77       59.774359
  78       60.795188
  79       60.916970
  80       61.038522
 
  0.0000000E+00  0.2051282E+00  0.2051282E+00  0.3125000E-02
   1       -8.379272
   2       -3.965047
   3       -3.940723
   4       -3.940719
   5       -3.784603
   6       -3.766661
   7        0.434910
   8        1.884200
   9        1.884200
  10        5.632201
  11        6.453026
  12        8.817504
  13        8.817505
  14        9.865588
  15       12.571929
  16       12.831112
  17       14.583105
  18       14.583107
  19       15.244878
  20       19.972483
  21       19.972486
  22       20.059628
  23       20.605921
  24       21.730139
  25       25.368037
  26       25.368041
  27       25.413481
  28       27.233042
  29       28.913936
  30       28.913937
  31       29.486607
  32       30.055672
  33       30.319894
  34       30.319896
  35       30.559011
  36       33.527986
  37       33.609640
  38       33.717950
  39       33.717952
  40       35.056706
  41       35.259207
  42       35.259213
  43       36.380135
  44       37.132831
  45       37.814253
  46       39.389016
  47       39.487408
  48       39.487412
  49       40.601763
  50       41.129785
  51       41.172033
  52       41.172039
  53       42.020514
  54       42.020518
  55       42.928377
  56       43.935496
  57       45.446837
  58       45.777684
  59       45.777687
  60       47.235230
  61       48.781385
  62       48.833371
  63       49.231598
  64       49.231602
  65       51.561457
  66       52.440498
  67       52.440501
  68       52.682214
  69       54.900551
  70       55.608762
  71       55.608774
  72       55.852359
  73       55.860185
  74       58.541428
  75       59.354175
  76       59.918196
  77       59.920834
  78       60.413573
  79       60.535414
  80       60.741152
 
  0.0000000E+00  0.2179487E+00  0.2179487E+00  0.3125000E-02
   1       -8.339962
   2       -3.961657
   3       -3.935746
   4       -3.935742
   5       -3.784623