    8    8    1    1
  0.2392351E+02  0.5762863E-09  0.5762863E-09  0.5762863E-09  0.5000000E-15
  1.000000000000000E-004
  CAR 
 unknown system                          
   24   10   20
 
  0.8333333E-01  0.8333333E-01  0.8333333E-01  0.3703704E-01
   1       -8.769774
   2       -5.429268
   3       -5.429268
   4       -5.429268
   5       -4.183426
   6       -4.183426
   7       -4.183426
   8       -0.116191
   9       -0.116190
  10       -0.116190
  11        0.312307
  12        0.312307
  13        0.312307
  14        2.429770
  15        3.464078
  16        3.464080
  17        3.658641
  18        3.658642
  19        3.658644
  20        4.250784
 
  0.2500000E+00  0.8333333E-01  0.8333333E-01  0.1111111E+00
   1       -8.539554
   2       -6.510983
   3       -5.337364
   4       -5.337364
   5       -4.176156
   6       -4.176156
   7       -2.833696
   8       -0.718485
   9       -0.718485
  10        0.109247
  11        0.109247
  12        0.182690
  13        0.561023
  14        1.196598
  15        2.627295
  16        2.787405
  17        3.771444
  18        4.421233
  19        4.421233
  20        4.726797
 
  0.4166667E+00  0.8333333E-01  0.8333333E-01  0.1111111E+00
   1       -8.081610
   2       -7.401745
   3       -5.230338
   4       -5.230338
   5       -4.184961
   6       -4.184961
   7       -1.447322
   8       -1.060886
   9       -1.060886
  10       -0.235947
  11       -0.235947
  12       -0.097687
  13        0.787293
  14        1.049561
  15        1.689902
  16        1.756095
  17        4.093367
  18        4.631656
  19        5.554722
  20        5.986399
 
  0.2500000E+00  0.2500000E+00  0.8333333E-01  0.1111111E+00
   1       -8.312931
   2       -6.344524
   3       -6.344524
   4       -5.436154
   5       -4.092228
   6       -3.060646
   7       -3.060646
   8       -1.194020
   9       -0.379707
  10       -0.379707
  11        0.116104
  12        0.491104
  13        0.491104
  14        0.737719
  15        1.869322
  16        3.176905
  17        4.097934
  18        4.640486
  19        4.640486
  20        5.280667
 
  0.4166667E+00  0.2500000E+00  0.8333333E-01  0.2222222E+00
   1       -7.863607
   2       -7.201065
   3       -6.045317
   4       -5.697054
   5       -3.845078
   6       -3.452829
   7       -1.995861
   8       -1.224028
   9       -0.960730
  10       -0.894172
  11        0.214277
  12        0.490711
  13        0.716778
  14        0.980120
  15        1.287318
  16        2.364713
  17        5.026109
  18        5.061508
  19        5.565508
  20        6.204628
 
  0.4166667E+00  0.4166667E+00  0.8333333E-01  0.1111111E+00
   1       -7.435215
   2       -6.815414
   3       -6.815414
   4       -6.285066
   5       -3.339252
   6       -2.699281
   7       -2.699281
   8       -1.874869
   9       -0.998800
  10       -0.475036
  11       -0.475036
  12        0.173644
  13        1.514784
  14        1.581384
  15        1.581384
  16        2.448207
  17        4.840368
  18        5.495314
  19        5.828020
  20        5.828050
 
  0.2500000E+00  0.2500000E+00  0.2500000E+00  0.3703704E-01
   1       -8.091595
   2       -6.235215
   3       -6.235215
   4       -6.235215
   5       -3.421391
   6       -3.421391
   7       -3.421391
   8       -0.907926
   9       -0.495245
  10       -0.495245
  11       -0.495245
  12        0.960924
  13        0.960924
  14        0.960924
  15        2.658248
  16        2.658248
  17        4.379567
  18        4.379567
  19        4.379567
  20        4.450631
 
  0.4166667E+00  0.2500000E+00  0.2500000E+00  0.1111111E+00
   1       -7.655619
   2       -7.022578
   3       -6.105211
   4       -6.105211
   5       -3.771529
   6       -3.771529
   7       -2.701617
   8       -1.877433
   9       -0.435797
  10       -0.435797
  11        0.660768
  12        1.028665
  13        1.028665
  14        1.391377
  15        1.943230
  16        1.988435
  17        4.878129
  18        4.977283
  19        5.256192
  20        5.256193
 
  0.4166667E+00  0.4166667E+00  0.2500000E+00  0.1111111E+00
   1       -7.254337
   2       -6.701528
   3       -6.701528
   4       -6.338768
   5       -3.804781
   6       -3.396738
   7       -3.396738
   8       -2.743382
   9        0.064478
  10        0.519760
  11        0.519760
  12        1.316080
  13        1.658050
  14        1.695088
  15        1.695088
  16        2.363327
  17        4.785837
  18        4.984279
  19        5.352933
  20        5.352945
 
  0.4166667E+00  0.4166667E+00  0.4166667E+00  0.3703704E-01
   1       -6.929487
   2       -6.565729
   3       -6.565729
   4       -6.565729
   5       -3.907059
   6       -3.907059
   7       -3.907059
   8       -3.500313
   9        1.376244
  10        1.376244
  11        1.376244
  12        1.904167
  13        1.904167
  14        1.904167
  15        2.170610
  16        2.170610
  17        4.042274
  18        4.669585
  19        4.669587
  20        4.669585
