<?xml version="1.0" encoding="ISO-8859-1"?>
<modeling>
 <generator>
  <i name="program" type="string">vasp </i>
  <i name="version" type="string">5.3.3  </i>
  <i name="subversion" type="string">18Dez12 (build Dec 13 2014 13:36:02) complex                          parallel </i>
  <i name="platform" type="string">LinuxIFC </i>
  <i name="date" type="string">2018 11 27 </i>
  <i name="time" type="string">23:21:41 </i>
 </generator>
 <incar>
  <i type="string" name="PREC">normal</i>
  <i type="string" name="ALGO"> Fast</i>
  <i type="int" name="ISPIN">     1</i>
  <i type="int" name="IBRION">    -1</i>
  <i type="int" name="NSW">     0</i>
  <i type="int" name="ISYM">     1</i>
  <i name="ENCUT">    300.00000000</i>
  <i type="int" name="ISMEAR">     0</i>
  <i name="SIGMA">      0.20000000</i>
  <i type="logical" name="LWAVE"> F  </i>
  <i type="logical" name="LCHARG"> F  </i>
 </incar>
 <kpoints>
  <generation param="Monkhorst-Pack">
   <v type="int" name="divisions">       6        6        6 </v>
   <v name="usershift">      0.00000000       0.00000000       0.00000000 </v>
   <v name="genvec1">      0.16666667       0.00000000       0.00000000 </v>
   <v name="genvec2">      0.00000000       0.16666667       0.00000000 </v>
   <v name="genvec3">      0.00000000       0.00000000       0.16666667 </v>
   <v name="shift">      0.50000000       0.50000000       0.50000000 </v>
  </generation>
  <varray name="kpointlist" >
   <v>       0.08333333       0.08333333       0.08333333 </v>
   <v>       0.25000000       0.08333333       0.08333333 </v>
   <v>       0.41666667       0.08333333       0.08333333 </v>
   <v>       0.25000000       0.25000000       0.08333333 </v>
   <v>       0.41666667       0.25000000       0.08333333 </v>
   <v>       0.41666667       0.41666667       0.08333333 </v>
   <v>       0.25000000       0.25000000       0.25000000 </v>
   <v>       0.41666667       0.25000000       0.25000000 </v>
   <v>       0.41666667       0.41666667       0.25000000 </v>
   <v>       0.41666667       0.41666667       0.41666667 </v>
  </varray>
  <varray name="weights" >
   <v>       0.03703704 </v>
   <v>       0.11111111 </v>
   <v>       0.11111111 </v>
   <v>       0.11111111 </v>
   <v>       0.22222222 </v>
   <v>       0.11111111 </v>
   <v>       0.03703704 </v>
   <v>       0.11111111 </v>
   <v>       0.11111111 </v>
   <v>       0.03703704 </v>
  </varray>
 </kpoints>
 <parameters>
  <separator name="general" >
   <i type="string" name="SYSTEM">unknown system</i>
   <i type="logical" name="LCOMPAT"> F  </i>
  </separator>
  <separator name="electronic" >
   <i type="string" name="PREC">normal</i>
   <i name="ENMAX">    300.00000000</i>
   <i name="ENAUG">    320.26400000</i>
   <i name="EDIFF">      0.00010000</i>
   <i type="int" name="IALGO">    68</i>
   <i type="int" name="IWAVPR">    10</i>
   <i type="int" name="NBANDS">    20</i>
   <i name="NELECT">     24.00000000</i>
   <i type="int" name="TURBO">     0</i>
   <i type="int" name="IRESTART">     0</i>
   <i type="int" name="NREBOOT">     0</i>
   <i type="int" name="NMIN">     0</i>
   <i name="EREF">      0.00000000</i>
   <separator name="electronic smearing" >
    <i type="int" name="ISMEAR">     0</i>
    <i name="SIGMA">      0.20000000</i>
    <i name="KSPACING">      0.50000000</i>
    <i type="logical" name="KGAMMA"> T  </i>
   </separator>
   <separator name="electronic projectors" >
    <i type="logical" name="LREAL"> F  </i>
    <v name="ROPT">      0.00000000</v>
    <i type="int" name="LMAXPAW">  -100</i>
    <i type="int" name="LMAXMIX">     2</i>
    <i type="logical" name="NLSPLINE"> F  </i>
   </separator>
   <separator name="electronic startup" >
    <i type="int" name="ISTART">     0</i>
    <i type="int" name="ICHARG">     2</i>
    <i type="int" name="INIWAV">     1</i>
   </separator>
   <separator name="electronic spin" >
    <i type="int" name="ISPIN">     1</i>
    <i type="logical" name="LNONCOLLINEAR"> F  </i>
    <v name="MAGMOM">      1.00000000      1.00000000      1.00000000      1.00000000      1.00000000      1.00000000      1.00000000      1.00000000</v>
    <i name="NUPDOWN">     -1.00000000</i>
    <i type="logical" name="LSORBIT"> F  </i>
    <v name="SAXIS">      0.00000000      0.00000000      1.00000000</v>
    <i type="logical" name="LSPIRAL"> F  </i>
    <v name="QSPIRAL">      0.00000000      0.00000000      0.00000000</v>
    <i type="logical" name="LZEROZ"> F  </i>
   </separator>
   <separator name="electronic exchange-correlation" >
    <i type="logical" name="LASPH"> F  </i>
    <i type="logical" name="LMETAGGA"> F  </i>
   </separator>
   <separator name="electronic convergence" >
    <i type="int" name="NELM">    60</i>
    <i type="int" name="NELMDL">    -5</i>
    <i type="int" name="NELMIN">     2</i>
    <i name="ENINI">    300.00000000</i>
    <separator name="electronic convergence detail" >
     <i type="logical" name="LDIAG"> T  </i>
     <i type="logical" name="LSUBROT"> T  </i>
     <i name="WEIMIN">      0.00000000</i>
     <i name="EBREAK">      0.00000125</i>
     <i name="DEPER">      0.30000000</i>
     <i type="int" name="NRMM">     4</i>
     <i name="TIME">      0.40000000</i>
    </separator>
   </separator>
   <separator name="electronic mixer" >
    <i name="AMIX">      0.40000000</i>
    <i name="BMIX">      1.00000000</i>
    <i name="AMIN">      0.10000000</i>
    <i name="AMIX_MAG">      1.60000000</i>
    <i name="BMIX_MAG">      1.00000000</i>
    <separator name="electronic mixer details" >
     <i type="int" name="IMIX">     4</i>
     <i type="int" name="MAXMIX">   -45</i>
     <i name="WC">    100.00000000</i>
     <i type="int" name="INIMIX">     1</i>
     <i type="int" name="MIXPRE">     1</i>
     <i type="int" name="MREMOVE">     5</i>
    </separator>
   </separator>
   <separator name="electronic dipolcorrection" >
    <i type="logical" name="LDIPOL"> F  </i>
    <i type="logical" name="LMONO"> F  </i>
    <i type="int" name="IDIPOL">     0</i>
    <i name="EPSILON">      1.00000000</i>
    <v name="DIPOL">   -100.00000000   -100.00000000   -100.00000000</v>
    <i name="EFIELD">      0.00000000</i>
   </separator>
  </separator>
  <separator name="grids" >
   <i type="int" name="NGX">    24</i>
   <i type="int" name="NGY">    24</i>
   <i type="int" name="NGZ">    24</i>
   <i type="int" name="NGXF">    48</i>
   <i type="int" name="NGYF">    48</i>
   <i type="int" name="NGZF">    48</i>
   <i type="logical" name="ADDGRID"> F  </i>
  </separator>
  <separator name="ionic" >
   <i type="int" name="NSW">     0</i>
   <i type="int" name="IBRION">    -1</i>
   <i type="int" name="ISIF">     2</i>
   <i name="PSTRESS">      0.00000000</i>
   <i name="EDIFFG">      0.00100000</i>
   <i type="int" name="NFREE">     0</i>
   <i name="POTIM">      0.50000000</i>
   <i name="SMASS">     -3.00000000</i>
   <i name="SCALEE">      1.00000000</i>
  </separator>
  <separator name="ionic md" >
   <i name="TEBEG">      0.00010000</i>
   <i name="TEEND">      0.00010000</i>
   <i type="int" name="NBLOCK">     1</i>
   <i type="int" name="KBLOCK">     1</i>
   <i type="int" name="NPACO">   256</i>
   <i name="APACO">     16.00000000</i>
  </separator>
  <separator name="symmetry" >
   <i type="int" name="ISYM">     1</i>
   <i name="SYMPREC">      0.00001000</i>
  </separator>
  <separator name="dos" >
   <i type="logical" name="LORBIT"> F  </i>
   <v name="RWIGS">     -1.00000000</v>
   <i type="int" name="NEDOS">   301</i>
   <i name="EMIN">     10.00000000</i>
   <i name="EMAX">    -10.00000000</i>
   <i name="EFERMI">      0.00000000</i>
  </separator>
  <separator name="writing" >
   <i type="int" name="NWRITE">     2</i>
   <i type="logical" name="LWAVE"> F  </i>
   <i type="logical" name="LCHARG"> F  </i>
   <i type="logical" name="LPARD"> F  </i>
   <i type="logical" name="LVTOT"> F  </i>
   <i type="logical" name="LVHAR"> F  </i>
   <i type="logical" name="LELF"> F  </i>
   <i type="logical" name="LOPTICS"> F  </i>
   <v name="STM">      0.00000000      0.00000000      0.00000000      0.00000000      0.00000000      0.00000000      0.00000000</v>
  </separator>
  <separator name="performance" >
   <i type="int" name="NPAR">    20</i>
   <i type="int" name="NSIM">     4</i>
   <i type="int" name="NBLK">    -1</i>
   <i type="logical" name="LPLANE"> T  </i>
   <i type="logical" name="LSCALAPACK"> T  </i>
   <i type="logical" name="LSCAAWARE"> F  </i>
   <i type="logical" name="LSCALU"> F  </i>
   <i type="logical" name="LASYNC"> F  </i>
   <i type="logical" name="LORBITALREAL"> F  </i>
  </separator>
  <separator name="miscellaneous" >
   <i type="int" name="IDIOT">     3</i>
   <i type="logical" name="LMUSIC"> F  </i>
   <v name="POMASS">     69.72300000</v>
   <v name="DARWINR">      0.00000000</v>
   <v name="DARWINV">      1.00000000</v>
   <i type="logical" name="LCORR"> T  </i>
  </separator>
  <i type="logical" name="GGA_COMPAT"> T  </i>
  <i type="logical" name="LBERRY"> F  </i>
  <i type="int" name="ICORELEVEL">     0</i>
  <i type="logical" name="LDAU"> F  </i>
  <i type="int" name="I_CONSTRAINED_M">     0</i>
  <separator name="electronic exchange-correlation" >
   <i type="string" name="GGA">--</i>
   <i type="int" name="VOSKOWN">     0</i>
   <i type="logical" name="LHFCALC"> F  </i>
   <i type="string" name="PRECFOCK"></i>
   <i type="logical" name="LSYMGRAD"> F  </i>
   <i type="logical" name="LHFONE"> F  </i>
   <i type="logical" name="LRHFCALC"> F  </i>
   <i type="logical" name="LTHOMAS"> F  </i>
   <i type="logical" name="LMODELHF"> F  </i>
   <i name="ENCUT4O">     -1.00000000</i>
   <i type="int" name="EXXOEP">     0</i>
   <i type="int" name="FOURORBIT">     0</i>
   <i name="AEXX">      0.00000000</i>
   <i name="HFALPHA">      0.00000000</i>
   <i name="MCALPHA">      0.00000000</i>
   <i name="ALDAX">      1.00000000</i>
   <i name="AGGAX">      1.00000000</i>
   <i name="ALDAC">      1.00000000</i>
   <i name="AGGAC">      1.00000000</i>
   <i type="int" name="NKREDX">     1</i>
   <i type="int" name="NKREDY">     1</i>
   <i type="int" name="NKREDZ">     1</i>
   <i type="logical" name="SHIFTRED"> F  </i>
   <i type="logical" name="ODDONLY"> F  </i>
   <i type="logical" name="EVENONLY"> F  </i>
   <i type="int" name="LMAXFOCK">     0</i>
   <i type="int" name="NMAXFOCKAE">     0</i>
   <i type="logical" name="LFOCKAEDFT"> F  </i>
   <i name="HFSCREEN">      0.00000000</i>
   <i name="HFSCREENC">      0.00000000</i>
   <i type="int" name="NBANDSGWLOW">     0</i>
  </separator>
  <separator name="vdW DFT" >
   <i type="logical" name="LUSE_VDW"> F  </i>
   <i name="Zab_VDW">     -0.84910000</i>
   <i name="PARAM1">      0.12340000</i>
   <i name="PARAM2">      1.00000000</i>
   <i name="PARAM3">      0.00000000</i>
  </separator>
  <separator name="model GW" >
   <i type="int" name="MODEL_GW">     0</i>
   <i name="MODEL_EPS0">     14.35410601</i>
   <i name="MODEL_ALPHA">      1.00000000</i>
  </separator>
  <separator name="linear response parameters" >
   <i type="logical" name="LEPSILON"> F  </i>
   <i type="logical" name="LRPA"> F  </i>
   <i type="logical" name="LNABLA"> F  </i>
   <i type="logical" name="LVEL"> F  </i>
   <i type="int" name="KINTER">     0</i>
   <i name="CSHIFT">      0.10000000</i>
   <i name="OMEGAMAX">     -1.00000000</i>
   <i name="DEG_THRESHOLD">      0.00200000</i>
  </separator>
  <separator name="orbital magnetization" >
   <i type="logical" name="NUCIND"> F  </i>
   <v name="MAGPOS">      0.00000000      0.00000000      0.00000000</v>
   <i type="logical" name="LNICSALL"> T  </i>
   <i type="logical" name="ORBITALMAG"> F  </i>
   <i type="logical" name="LMAGBLOCH"> F  </i>
   <i type="logical" name="LCHIMAG"> F  </i>
   <i type="logical" name="LGAUGE"> T  </i>
   <i type="int" name="MAGATOM">     0</i>
   <v name="MAGDIPOL">      0.00000000      0.00000000      0.00000000</v>
   <v name="AVECCONST">      0.00000000      0.00000000      0.00000000</v>
  </separator>
  <separator name="response functions" >
   <i type="logical" name="LADDER"> F  </i>
   <i type="logical" name="LFXC"> F  </i>
   <i type="logical" name="LHARTREE"> T  </i>
   <i type="int" name="IBSE">     0</i>
   <i type="logical" name="LTCTE"> F  </i>
   <i type="logical" name="LTETE"> F  </i>
   <i type="logical" name="LTRIPLET"> F  </i>
   <i type="logical" name="LFXCEPS"> F  </i>
   <i type="logical" name="L2ORDER"> F  </i>
   <i type="logical" name="LUSEW"> F  </i>
   <i name="ENCUTGW">     -2.00000000</i>
   <i name="ENCUTGWSOFT">     -2.00000000</i>
   <i name="ENCUTLF">     -1.00000000</i>
   <i type="int" name="LMAXMP2">    -1</i>
   <i name="SCISSOR">      0.00000000</i>
   <i type="int" name="NOMEGA">     0</i>
   <i type="int" name="NOMEGAR">     0</i>
   <i type="int" name="NBANDSGW">    -1</i>
   <i type="int" name="NBANDSO">    -1</i>
   <i type="int" name="NBANDSV">    -1</i>
   <i type="int" name="NELM">     1</i>
   <i type="int" name="DIM">     3</i>
   <i type="int" name="ANTIRES">     0</i>
   <i name="OMEGAMAX">    -30.00000000</i>
   <i name="OMEGATL">   -200.00000000</i>
   <i type="int" name="OMEGAGRID">     0</i>
   <i name="CSHIFT">     -0.10000000</i>
   <i type="logical" name="SELFENERGY"> F  </i>
   <i type="logical" name="LSPECTRAL"> F  </i>
   <i type="logical" name="ODDONLYGW"> F  </i>
   <i type="logical" name="EVENONLYGW"> F  </i>
   <i type="int" name="NKREDLFX">     1</i>
   <i type="int" name="NKREDLFY">     1</i>
   <i type="int" name="NKREDLFZ">     1</i>
   <i type="int" name="MAXMEM">  1800</i>
   <i type="int" name="TELESCOPE">     0</i>
  </separator>
 </parameters>
 <atominfo>
  <atoms>       8 </atoms>
  <types>       1 </types>
  <array name="atoms" >
   <dimension dim="1">ion</dimension>
   <field type="string">element</field>
   <field type="int">atomtype</field>
   <set>
    <rc><c>Ga</c><c>   1</c></rc>
    <rc><c>Ga</c><c>   1</c></rc>
    <rc><c>Ga</c><c>   1</c></rc>
    <rc><c>Ga</c><c>   1</c></rc>
    <rc><c>Ga</c><c>   1</c></rc>
    <rc><c>Ga</c><c>   1</c></rc>
    <rc><c>Ga</c><c>   1</c></rc>
    <rc><c>Ga</c><c>   1</c></rc>
   </set>
  </array>
  <array name="atomtypes" >
   <dimension dim="1">type</dimension>
   <field type="int">atomspertype</field>
   <field type="string">element</field>
   <field>mass</field>
   <field>valence</field>
   <field type="string">pseudopotential</field>
   <set>
    <rc><c>   8</c><c>Ga</c><c>     69.72300000</c><c>      3.00000000</c><c> PAW_PBE Ga 08Apr2002                   </c></rc>
   </set>
  </array>
 </atominfo>
 <structure name="initialpos" >
  <crystal>
   <varray name="basis" >
    <v>       5.76286300       0.00000000       0.00000000 </v>
    <v>       0.00000000       5.76286300       0.00000000 </v>
    <v>       0.00000000       0.00000000       5.76286300 </v>
   </varray>
   <i name="volume">    191.38808007 </i>
   <varray name="rec_basis" >
    <v>       0.17352486       0.00000000       0.00000000 </v>
    <v>       0.00000000       0.17352486       0.00000000 </v>
    <v>       0.00000000       0.00000000       0.17352486 </v>
   </varray>
  </crystal>
  <varray name="positions" >
   <v>       0.75000000       0.75000000       0.75000000 </v>
   <v>       0.50000000       0.00000000       0.00000000 </v>
   <v>       0.75000000       0.25000000       0.25000000 </v>
   <v>       0.50000000       0.50000000       0.50000000 </v>
   <v>       0.25000000       0.75000000       0.25000000 </v>
   <v>       0.00000000       0.00000000       0.50000000 </v>
   <v>       0.25000000       0.25000000       0.75000000 </v>
   <v>       0.00000000       0.50000000       0.00000000 </v>
  </varray>
 </structure>
 <calculation>
  <scstep>
   <time name="dav">    0.13    0.14</time>
   <time name="total">    0.17    0.19</time>
   <energy>
    <i name="alphaZ">     59.64982895 </i>
    <i name="ewald">   -484.56382983 </i>
    <i name="hartreedc">    -22.55400904 </i>
    <i name="XCdc">   -155.28694988 </i>
    <i name="pawpsdc">    330.10196642 </i>
    <i name="pawaedc">   -140.54714835 </i>
    <i name="eentropy">     -0.04426862 </i>
    <i name="bandstr">    -18.63694530 </i>
    <i name="atom">    470.94907362 </i>
    <i name="e_fr_energy">     39.06771798 </i>
    <i name="e_wo_entrp">     39.11198660 </i>
    <i name="e_0_energy">     39.08985229 </i>
   </energy>
  </scstep>
  <scstep>
   <time name="dav">    0.21    0.21</time>
   <time name="total">    0.21    0.21</time>
   <energy>
    <i name="e_fr_energy">    -19.95799642 </i>
    <i name="e_wo_entrp">    -19.86100680 </i>
    <i name="e_0_energy">    -19.90950161 </i>
   </energy>
  </scstep>
  <scstep>
   <time name="dav">    0.16    0.16</time>
   <time name="total">    0.16    0.16</time>
   <energy>
    <i name="e_fr_energy">    -21.05051356 </i>
    <i name="e_wo_entrp">    -20.95161618 </i>
    <i name="e_0_energy">    -21.00106487 </i>
   </energy>
  </scstep>
  <scstep>
   <time name="dav">    0.26    0.26</time>
   <time name="total">    0.26    0.27</time>
   <energy>
    <i name="e_fr_energy">    -21.05340446 </i>
    <i name="e_wo_entrp">    -20.95450555 </i>
    <i name="e_0_energy">    -21.00395501 </i>
   </energy>
  </scstep>
  <scstep>
   <time name="dav">    0.15    0.15</time>
   <time name="total">    0.20    0.21</time>
   <energy>
    <i name="e_fr_energy">    -21.05340468 </i>
    <i name="e_wo_entrp">    -20.95450577 </i>
    <i name="e_0_energy">    -21.00395522 </i>
   </energy>
  </scstep>
  <scstep>
   <time name="diag">    0.06    0.09</time>
   <time name="diis">    0.10    0.10</time>
   <time name="orth">    0.02    0.02</time>
   <time name="total">    0.23    0.27</time>
   <energy>
    <i name="e_fr_energy">    -20.97116289 </i>
    <i name="e_wo_entrp">    -20.87225792 </i>
    <i name="e_0_energy">    -20.92171040 </i>
   </energy>
  </scstep>
  <scstep>
   <time name="diag">    0.03    0.03</time>
   <time name="diis">    0.10    0.10</time>
   <time name="orth">    0.00    0.00</time>
   <time name="total">    0.18    0.18</time>
   <energy>
    <i name="e_fr_energy">    -20.92877979 </i>
    <i name="e_wo_entrp">    -20.82980908 </i>
    <i name="e_0_energy">    -20.87929444 </i>
   </energy>
  </scstep>
  <scstep>
   <time name="diag">    0.03    0.03</time>
   <time name="diis">    0.13    0.13</time>
   <time name="orth">    0.00    0.00</time>
   <time name="total">    0.21    0.21</time>
   <energy>
    <i name="e_fr_energy">    -20.92904341 </i>
    <i name="e_wo_entrp">    -20.83002051 </i>
    <i name="e_0_energy">    -20.87953196 </i>
   </energy>
  </scstep>
  <scstep>
   <time name="diag">    0.03    0.03</time>
   <time name="diis">    0.12    0.12</time>
   <time name="orth">    0.00    0.00</time>
   <time name="total">    0.17    0.17</time>
   <energy>
    <i name="alphaZ">     59.64982895 </i>
    <i name="ewald">   -484.56382983 </i>
    <i name="hartreedc">    -24.22799054 </i>
    <i name="XCdc">   -153.71787662 </i>
    <i name="pawpsdc">    419.78945934 </i>
    <i name="pawaedc">   -231.64466262 </i>
    <i name="eentropy">     -0.09903982 </i>
    <i name="bandstr">    -77.06404371 </i>
    <i name="atom">    470.94907362 </i>
    <i name="e_fr_energy">    -20.92908122 </i>
    <i name="e_wo_entrp">    -20.83004140 </i>
    <i name="e_0_energy">    -20.87956131 </i>
   </energy>
  </scstep>
  <structure>
   <crystal>
    <varray name="basis" >
     <v>       5.76286300       0.00000000       0.00000000 </v>
     <v>       0.00000000       5.76286300       0.00000000 </v>
     <v>       0.00000000       0.00000000       5.76286300 </v>
    </varray>
    <i name="volume">    191.38808007 </i>
    <varray name="rec_basis" >
     <v>       0.17352486       0.00000000       0.00000000 </v>
     <v>       0.00000000       0.17352486       0.00000000 </v>
     <v>       0.00000000       0.00000000       0.17352486 </v>
    </varray>
   </crystal>
   <varray name="positions" >
    <v>       0.75000000       0.75000000       0.75000000 </v>
    <v>       0.50000000       0.00000000       0.00000000 </v>
    <v>       0.75000000       0.25000000       0.25000000 </v>
    <v>       0.50000000       0.50000000       0.50000000 </v>
    <v>       0.25000000       0.75000000       0.25000000 </v>
    <v>       0.00000000       0.00000000       0.50000000 </v>
    <v>       0.25000000       0.25000000       0.75000000 </v>
    <v>       0.00000000       0.50000000       0.00000000 </v>
   </varray>
  </structure>
  <varray name="forces" >
   <v>      -0.00000000       0.00000000      -0.00000000 </v>
   <v>      -0.00000000       0.00000000       0.00000000 </v>
   <v>      -0.00000000      -0.00000000      -0.00000000 </v>
   <v>       0.00000000       0.00000000      -0.00000000 </v>
   <v>       0.00000000       0.00000000      -0.00000000 </v>
   <v>       0.00000000       0.00000000       0.00000000 </v>
   <v>      -0.00000000      -0.00000000       0.00000000 </v>
   <v>      -0.00000000      -0.00000000       0.00000000 </v>
  </varray>
  <varray name="stress" >
   <v>      27.81118635       0.00000000       0.00000000 </v>
   <v>       0.00000000      27.81118635      -0.00000000 </v>
   <v>      -0.00000000      -0.00000000      27.81118635 </v>
  </varray>
  <energy>
   <i name="e_fr_energy">    -20.92908122 </i>
   <i name="e_wo_entrp">    -20.87956131 </i>
   <i name="e_0_energy">     -0.09903982 </i>
  </energy>
  <time name="totalsc">    2.22    2.30</time>
  <eigenvalues>
   <array>
    <dimension dim="1">band</dimension>
    <dimension dim="2">kpoint</dimension>
    <dimension dim="3">spin</dimension>
    <field>eigene</field>
    <field>occ</field>
    <set>
     <set comment="spin 1">
      <set comment="kpoint 1">
       <r>   -8.7698    1.0000 </r>
       <r>   -5.4293    1.0000 </r>
       <r>   -5.4293    1.0000 </r>
       <r>   -5.4293    1.0000 </r>
       <r>   -4.1834    1.0000 </r>
       <r>   -4.1834    1.0000 </r>
       <r>   -4.1834    1.0000 </r>
       <r>   -0.1162    1.0000 </r>
       <r>   -0.1162    1.0000 </r>
       <r>   -0.1162    1.0000 </r>
       <r>    0.3123    0.9984 </r>
       <r>    0.3123    0.9984 </r>
       <r>    0.3123    0.9984 </r>
       <r>    2.4298    0.0000 </r>
       <r>    3.4641    0.0000 </r>
       <r>    3.4641    0.0000 </r>
       <r>    3.6586    0.0000 </r>
       <r>    3.6586    0.0000 </r>
       <r>    3.6586    0.0000 </r>
       <r>    4.2508    0.0000 </r>
      </set>
      <set comment="kpoint 2">
       <r>   -8.5396    1.0000 </r>
       <r>   -6.5110    1.0000 </r>
       <r>   -5.3374    1.0000 </r>
       <r>   -5.3374    1.0000 </r>
       <r>   -4.1762    1.0000 </r>
       <r>   -4.1762    1.0000 </r>
       <r>   -2.8337    1.0000 </r>
       <r>   -0.7185    1.0000 </r>
       <r>   -0.7185    1.0000 </r>
       <r>    0.1092    1.0000 </r>
       <r>    0.1092    1.0000 </r>
       <r>    0.1827    0.9999 </r>
       <r>    0.5610    0.8846 </r>
       <r>    1.1966    0.0005 </r>
       <r>    2.6273    0.0000 </r>
       <r>    2.7874    0.0000 </r>
       <r>    3.7714    0.0000 </r>
       <r>    4.4212    0.0000 </r>
       <r>    4.4212    0.0000 </r>
       <r>    4.7268    0.0000 </r>
      </set>
      <set comment="kpoint 3">
       <r>   -8.0816    1.0000 </r>
       <r>   -7.4017    1.0000 </r>
       <r>   -5.2303    1.0000 </r>
       <r>   -5.2303    1.0000 </r>
       <r>   -4.1850    1.0000 </r>
       <r>   -4.1850    1.0000 </r>
       <r>   -1.4473    1.0000 </r>
       <r>   -1.0609    1.0000 </r>
       <r>   -1.0609    1.0000 </r>
       <r>   -0.2359    1.0000 </r>
       <r>   -0.2359    1.0000 </r>
       <r>   -0.0977    1.0000 </r>
       <r>    0.7873    0.3441 </r>
       <r>    1.0496    0.0120 </r>
       <r>    1.6899    0.0000 </r>
       <r>    1.7561    0.0000 </r>
       <r>    4.0934    0.0000 </r>
       <r>    4.6317    0.0000 </r>
       <r>    5.5547    0.0000 </r>
       <r>    5.9864    0.0000 </r>
      </set>
      <set comment="kpoint 4">
       <r>   -8.3129    1.0000 </r>
       <r>   -6.3445    1.0000 </r>
       <r>   -6.3445    1.0000 </r>
       <r>   -5.4362    1.0000 </r>
       <r>   -4.0922    1.0000 </r>
       <r>   -3.0606    1.0000 </r>
       <r>   -3.0606    1.0000 </r>
       <r>   -1.1940    1.0000 </r>
       <r>   -0.3797    1.0000 </r>
       <r>   -0.3797    1.0000 </r>
       <r>    0.1161    1.0000 </r>
       <r>    0.4911    0.9548 </r>
       <r>    0.4911    0.9548 </r>
       <r>    0.7377    0.4797 </r>
       <r>    1.8693    0.0000 </r>
       <r>    3.1769    0.0000 </r>
       <r>    4.0979    0.0000 </r>
       <r>    4.6405    0.0000 </r>
       <r>    4.6405    0.0000 </r>
       <r>    5.2807    0.0000 </r>
      </set>
      <set comment="kpoint 5">
       <r>   -7.8636    1.0000 </r>
       <r>   -7.2011    1.0000 </r>
       <r>   -6.0453    1.0000 </r>
       <r>   -5.6971    1.0000 </r>
       <r>   -3.8451    1.0000 </r>
       <r>   -3.4528    1.0000 </r>
       <r>   -1.9959    1.0000 </r>
       <r>   -1.2240    1.0000 </r>
       <r>   -0.9607    1.0000 </r>
       <r>   -0.8942    1.0000 </r>
       <r>    0.2143    0.9999 </r>
       <r>    0.4907    0.9550 </r>
       <r>    0.7168    0.5387 </r>
       <r>    0.9801    0.0388 </r>
       <r>    1.2873    0.0000 </r>
       <r>    2.3647    0.0000 </r>
       <r>    5.0261    0.0000 </r>
       <r>    5.0615    0.0000 </r>
       <r>    5.5655    0.0000 </r>
       <r>    6.2046    0.0000 </r>
      </set>
      <set comment="kpoint 6">
       <r>   -7.4352    1.0000 </r>
       <r>   -6.8154    1.0000 </r>
       <r>   -6.8154    1.0000 </r>
       <r>   -6.2851    1.0000 </r>
       <r>   -3.3393    1.0000 </r>
       <r>   -2.6993    1.0000 </r>
       <r>   -2.6993    1.0000 </r>
       <r>   -1.8749    1.0000 </r>
       <r>   -0.9988    1.0000 </r>
       <r>   -0.4750    1.0000 </r>
       <r>   -0.4750    1.0000 </r>
       <r>    0.1736    1.0000 </r>
       <r>    1.5148    0.0000 </r>
       <r>    1.5814    0.0000 </r>
       <r>    1.5814    0.0000 </r>
       <r>    2.4482    0.0000 </r>
       <r>    4.8404    0.0000 </r>
       <r>    5.4953    0.0000 </r>
       <r>    5.8280    0.0000 </r>
       <r>    5.8280    0.0000 </r>
      </set>
      <set comment="kpoint 7">
       <r>   -8.0916    1.0000 </r>
       <r>   -6.2352    1.0000 </r>
       <r>   -6.2352    1.0000 </r>
       <r>   -6.2352    1.0000 </r>
       <r>   -3.4214    1.0000 </r>
       <r>   -3.4214    1.0000 </r>
       <r>   -3.4214    1.0000 </r>
       <r>   -0.9079    1.0000 </r>
       <r>   -0.4952    1.0000 </r>
       <r>   -0.4952    1.0000 </r>
       <r>   -0.4952    1.0000 </r>
       <r>    0.9609    0.0516 </r>
       <r>    0.9609    0.0516 </r>
       <r>    0.9609    0.0516 </r>
       <r>    2.6582    0.0000 </r>
       <r>    2.6582    0.0000 </r>
       <r>    4.3796    0.0000 </r>
       <r>    4.3796    0.0000 </r>
       <r>    4.3796    0.0000 </r>
       <r>    4.4506    0.0000 </r>
      </set>
      <set comment="kpoint 8">
       <r>   -7.6556    1.0000 </r>
       <r>   -7.0226    1.0000 </r>
       <r>   -6.1052    1.0000 </r>
       <r>   -6.1052    1.0000 </r>
       <r>   -3.7715    1.0000 </r>
       <r>   -3.7715    1.0000 </r>
       <r>   -2.7016    1.0000 </r>
       <r>   -1.8774    1.0000 </r>
       <r>   -0.4358    1.0000 </r>
       <r>   -0.4358    1.0000 </r>
       <r>    0.6608    0.6891 </r>
       <r>    1.0287    0.0175 </r>
       <r>    1.0287    0.0175 </r>
       <r>    1.3914    0.0000 </r>
       <r>    1.9432    0.0000 </r>
       <r>    1.9884    0.0000 </r>
       <r>    4.8781    0.0000 </r>
       <r>    4.9773    0.0000 </r>
       <r>    5.2562    0.0000 </r>
       <r>    5.2562    0.0000 </r>
      </set>
      <set comment="kpoint 9">
       <r>   -7.2543    1.0000 </r>
       <r>   -6.7015    1.0000 </r>
       <r>   -6.7015    1.0000 </r>
       <r>   -6.3388    1.0000 </r>
       <r>   -3.8048    1.0000 </r>
       <r>   -3.3967    1.0000 </r>
       <r>   -3.3967    1.0000 </r>
       <r>   -2.7434    1.0000 </r>
       <r>    0.0645    1.0000 </r>
       <r>    0.5198    0.9319 </r>
       <r>    0.5198    0.9319 </r>
       <r>    1.3161    0.0000 </r>
       <r>    1.6581    0.0000 </r>
       <r>    1.6951    0.0000 </r>
       <r>    1.6951    0.0000 </r>
       <r>    2.3633    0.0000 </r>
       <r>    4.7858    0.0000 </r>
       <r>    4.9843    0.0000 </r>
       <r>    5.3529    0.0000 </r>
       <r>    5.3529    0.0000 </r>
      </set>
      <set comment="kpoint 10">
       <r>   -6.9295    1.0000 </r>
       <r>   -6.5657    1.0000 </r>
       <r>   -6.5657    1.0000 </r>
       <r>   -6.5657    1.0000 </r>
       <r>   -3.9071    1.0000 </r>
       <r>   -3.9071    1.0000 </r>
       <r>   -3.9071    1.0000 </r>
       <r>   -3.5003    1.0000 </r>
       <r>    1.3762    0.0000 </r>
       <r>    1.3762    0.0000 </r>
       <r>    1.3762    0.0000 </r>
       <r>    1.9042    0.0000 </r>
       <r>    1.9042    0.0000 </r>
       <r>    1.9042    0.0000 </r>
       <r>    2.1706    0.0000 </r>
       <r>    2.1706    0.0000 </r>
       <r>    4.0423    0.0000 </r>
       <r>    4.6696    0.0000 </r>
       <r>    4.6696    0.0000 </r>
       <r>    4.6696    0.0000 </r>
      </set>
     </set>
    </set>
   </array>
  </eigenvalues>
  <separator name="orbital magnetization" >
   <v name="MAGDIPOLOUT">      0.00000000      0.00000000      0.00000000</v>
  </separator>
  <dos>
   <i name="efermi">      0.73052422 </i>
   <total>
    <array>
     <dimension dim="1">gridpoints</dimension>
     <dimension dim="2">spin</dimension>
     <field>energy</field>
     <field>total</field>
     <field>integrated</field>
     <set>
      <set comment="spin 1">
       <r>   -10.7698     0.0000     0.0000 </r>
       <r>   -10.7065     0.0000     0.0000 </r>
       <r>   -10.6433     0.0000     0.0000 </r>
       <r>   -10.5800     0.0000     0.0000 </r>
       <r>   -10.5168     0.0000     0.0000 </r>
       <r>   -10.4535     0.0000     0.0000 </r>
       <r>   -10.3903     0.0000     0.0000 </r>
       <r>   -10.3270     0.0000     0.0000 </r>
       <r>   -10.2638     0.0000     0.0000 </r>
       <r>   -10.2005     0.0000     0.0000 </r>
       <r>   -10.1373     0.0000     0.0000 </r>
       <r>   -10.0740     0.0000     0.0000 </r>
       <r>   -10.0108     0.0000     0.0000 </r>
       <r>    -9.9476     0.0000     0.0000 </r>
       <r>    -9.8843     0.0000     0.0000 </r>
       <r>    -9.8211     0.0000     0.0000 </r>
       <r>    -9.7578     0.0000     0.0000 </r>
       <r>    -9.6946     0.0000     0.0000 </r>
       <r>    -9.6313     0.0000     0.0000 </r>
       <r>    -9.5681     0.0000     0.0000 </r>
       <r>    -9.5048     0.0000     0.0000 </r>
       <r>    -9.4416     0.0000     0.0000 </r>
       <r>    -9.3783     0.0000     0.0000 </r>
       <r>    -9.3151     0.0001     0.0000 </r>
       <r>    -9.2518     0.0003     0.0000 </r>
       <r>    -9.1886     0.0014     0.0001 </r>
       <r>    -9.1253     0.0052     0.0004 </r>
       <r>    -9.0621     0.0160     0.0015 </r>
       <r>    -8.9988     0.0406     0.0040 </r>
       <r>    -8.9356     0.0864     0.0095 </r>
       <r>    -8.8723     0.1570     0.0194 </r>
       <r>    -8.8091     0.2506     0.0353 </r>
       <r>    -8.7458     0.3646     0.0583 </r>
       <r>    -8.6826     0.4976     0.0898 </r>
       <r>    -8.6193     0.6424     0.1304 </r>
       <r>    -8.5561     0.7777     0.1796 </r>
       <r>    -8.4928     0.8794     0.2352 </r>
       <r>    -8.4296     0.9420     0.2948 </r>
       <r>    -8.3664     0.9819     0.3569 </r>
       <r>    -8.3031     1.0204     0.4215 </r>
       <r>    -8.2399     1.0732     0.4893 </r>
       <r>    -8.1766     1.1516     0.5622 </r>
       <r>    -8.1134     1.2599     0.6419 </r>
       <r>    -8.0501     1.3922     0.7299 </r>
       <r>    -7.9869     1.5339     0.8269 </r>
       <r>    -7.9236     1.6589     0.9319 </r>
       <r>    -7.8604     1.7244     1.0409 </r>
       <r>    -7.7971     1.6943     1.1481 </r>
       <r>    -7.7339     1.5802     1.2480 </r>
       <r>    -7.6706     1.4502     1.3398 </r>
       <r>    -7.6074     1.3908     1.4277 </r>
       <r>    -7.5441     1.4616     1.5202 </r>
       <r>    -7.4809     1.6696     1.6258 </r>
       <r>    -7.4176     1.9684     1.7503 </r>
       <r>    -7.3544     2.2803     1.8945 </r>
       <r>    -7.2911     2.5233     2.0541 </r>
       <r>    -7.2279     2.6278     2.2203 </r>
       <r>    -7.1646     2.5615     2.3823 </r>
       <r>    -7.1014     2.3670     2.5320 </r>
       <r>    -7.0381     2.1631     2.6688 </r>
       <r>    -6.9749     2.0842     2.8006 </r>
       <r>    -6.9116     2.1968     2.9396 </r>
       <r>    -6.8484     2.4603     3.0952 </r>
       <r>    -6.7851     2.7526     3.2693 </r>
       <r>    -6.7219     2.9477     3.4557 </r>
       <r>    -6.6587     2.9970     3.6453 </r>
       <r>    -6.5954     2.9596     3.8325 </r>
       <r>    -6.5322     2.9602     4.0197 </r>
       <r>    -6.4689     3.1052     4.2161 </r>
       <r>    -6.4057     3.4059     4.4315 </r>
       <r>    -6.3424     3.7597     4.6693 </r>
       <r>    -6.2792     4.0199     4.9235 </r>
       <r>    -6.2159     4.0972     5.1827 </r>
       <r>    -6.1527     3.9821     5.4345 </r>
       <r>    -6.0894     3.6805     5.6673 </r>
       <r>    -6.0262     3.1863     5.8689 </r>
       <r>    -5.9629     2.5525     6.0303 </r>
       <r>    -5.8997     1.9420     6.1531 </r>
       <r>    -5.8364     1.5436     6.2508 </r>
       <r>    -5.7732     1.4273     6.3410 </r>
       <r>    -5.7099     1.5069     6.4363 </r>
       <r>    -5.6467     1.6550     6.5410 </r>
       <r>    -5.5834     1.8389     6.6573 </r>
       <r>    -5.5202     2.1205     6.7914 </r>
       <r>    -5.4569     2.5291     6.9514 </r>
       <r>    -5.3937     2.9601     7.1386 </r>
       <r>    -5.3304     3.2147     7.3420 </r>
       <r>    -5.2672     3.1321     7.5400 </r>
       <r>    -5.2039     2.6913     7.7103 </r>
       <r>    -5.1407     2.0174     7.8379 </r>
       <r>    -5.0775     1.3064     7.9205 </r>
       <r>    -5.0142     0.7236     7.9663 </r>
       <r>    -4.9510     0.3397     7.9877 </r>
       <r>    -4.8877     0.1341     7.9962 </r>
       <r>    -4.8245     0.0443     7.9990 </r>
       <r>    -4.7612     0.0124     7.9998 </r>
       <r>    -4.6980     0.0047     8.0001 </r>
       <r>    -4.6347     0.0103     8.0008 </r>
       <r>    -4.5715     0.0402     8.0033 </r>
       <r>    -4.5082     0.1362     8.0119 </r>
       <r>    -4.4450     0.3805     8.0360 </r>
       <r>    -4.3817     0.8770     8.0914 </r>
       <r>    -4.3185     1.6701     8.1971 </r>
       <r>    -4.2552     2.6381     8.3639 </r>
       <r>    -4.1920     3.4853     8.5844 </r>
       <r>    -4.1287     3.9233     8.8325 </r>
       <r>    -4.0655     3.9182     9.0803 </r>
       <r>    -4.0022     3.7325     9.3164 </r>
       <r>    -3.9390     3.6738     9.5488 </r>
       <r>    -3.8757     3.7983     9.7890 </r>
       <r>    -3.8125     3.8838    10.0346 </r>
       <r>    -3.7492     3.6977    10.2685 </r>
       <r>    -3.6860     3.2760    10.4757 </r>
       <r>    -3.6227     2.9252    10.6607 </r>
       <r>    -3.5595     2.9461    10.8471 </r>
       <r>    -3.4963     3.3425    11.0585 </r>
       <r>    -3.4330     3.7881    11.2980 </r>
       <r>    -3.3698     3.8886    11.5440 </r>
       <r>    -3.3065     3.5032    11.7656 </r>
       <r>    -3.2433     2.8341    11.9448 </r>
       <r>    -3.1800     2.2219    12.0854 </r>
       <r>    -3.1168     1.8712    12.2037 </r>
       <r>    -3.0535     1.7680    12.3155 </r>
       <r>    -2.9903     1.8144    12.4303 </r>
       <r>    -2.9270     1.9807    12.5556 </r>
       <r>    -2.8638     2.2924    12.7005 </r>
       <r>    -2.8005     2.6946    12.8710 </r>
       <r>    -2.7373     2.9861    13.0598 </r>
       <r>    -2.6740     2.9355    13.2455 </r>
       <r>    -2.6108     2.4722    13.4019 </r>
       <r>    -2.5475     1.7532    13.5127 </r>
       <r>    -2.4843     1.0388    13.5784 </r>
       <r>    -2.4210     0.5173    13.6112 </r>
       <r>    -2.3578     0.2368    13.6261 </r>
       <r>    -2.2945     0.1632    13.6365 </r>
       <r>    -2.2313     0.2660    13.6533 </r>
       <r>    -2.1680     0.5470    13.6879 </r>
       <r>    -2.1048     1.0009    13.7512 </r>
       <r>    -2.0415     1.5524    13.8494 </r>
       <r>    -1.9783     2.0384    13.9783 </r>
       <r>    -1.9151     2.2732    14.1221 </r>
       <r>    -1.8518     2.1588    14.2586 </r>
       <r>    -1.7886     1.7539    14.3695 </r>
       <r>    -1.7253     1.2425    14.4481 </r>
       <r>    -1.6621     0.8268    14.5004 </r>
       <r>    -1.5988     0.6286    14.5402 </r>
       <r>    -1.5356     0.6608    14.5820 </r>
       <r>    -1.4723     0.8709    14.6371 </r>
       <r>    -1.4091     1.2109    14.7136 </r>
       <r>    -1.3458     1.6695    14.8192 </r>
       <r>    -1.2826     2.2448    14.9612 </r>
       <r>    -1.2193     2.9019    15.1448 </r>
       <r>    -1.1561     3.5748    15.3708 </r>
       <r>    -1.0928     4.1896    15.6358 </r>
       <r>    -1.0296     4.6574    15.9304 </r>
       <r>    -0.9663     4.8607    16.2378 </r>
       <r>    -0.9031     4.7115    16.5358 </r>
       <r>    -0.8398     4.2487    16.8046 </r>
       <r>    -0.7766     3.6601    17.0360 </r>
       <r>    -0.7133     3.1971    17.2383 </r>
       <r>    -0.6501     3.0676    17.4323 </r>
       <r>    -0.5868     3.3558    17.6445 </r>
       <r>    -0.5236     3.9580    17.8949 </r>
       <r>    -0.4603     4.5859    18.1849 </r>
       <r>    -0.3971     4.9171    18.4959 </r>
       <r>    -0.3339     4.8139    18.8004 </r>
       <r>    -0.2706     4.3983    19.0786 </r>
       <r>    -0.2074     3.9218    19.3266 </r>
       <r>    -0.1441     3.5984    19.5542 </r>
       <r>    -0.0809     3.5556    19.7791 </r>
       <r>    -0.0176     3.8488    20.0225 </r>
       <r>     0.0456     4.4220    20.3022 </r>
       <r>     0.1089     5.0535    20.6218 </r>
       <r>     0.1721     5.4389    20.9658 </r>
       <r>     0.2354     5.4222    21.3087 </r>
       <r>     0.2986     5.1587    21.6350 </r>
       <r>     0.3619     4.9996    21.9512 </r>
       <r>     0.4251     5.1733    22.2784 </r>
       <r>     0.4884     5.5782    22.6312 </r>
       <r>     0.5516     5.8985    23.0043 </r>
       <r>     0.6149     5.8979    23.3773 </r>
       <r>     0.6781     5.5781    23.7302 </r>
       <r>     0.7414     5.1086    24.0533 </r>
       <r>     0.8046     4.6946    24.3502 </r>
       <r>     0.8679     4.4904    24.6342 </r>
       <r>     0.9311     4.5204    24.9201 </r>
       <r>     0.9944     4.6401    25.2136 </r>
       <r>     1.0576     4.6510    25.5077 </r>
       <r>     1.1209     4.4983    25.7923 </r>
       <r>     1.1841     4.3141    26.0651 </r>
       <r>     1.2473     4.2435    26.3335 </r>
       <r>     1.3106     4.2839    26.6045 </r>
       <r>     1.3738     4.3363    26.8787 </r>
       <r>     1.4371     4.3704    27.1551 </r>
       <r>     1.5003     4.4687    27.4378 </r>
       <r>     1.5636     4.6969    27.7348 </r>
       <r>     1.6268     4.9767    28.0496 </r>
       <r>     1.6901     5.1248    28.3737 </r>
       <r>     1.7533     5.0124    28.6908 </r>
       <r>     1.8166     4.6586    28.9854 </r>
       <r>     1.8798     4.1651    29.2488 </r>
       <r>     1.9431     3.6030    29.4767 </r>
       <r>     2.0063     3.0013    29.6665 </r>
       <r>     2.0696     2.4279    29.8201 </r>
       <r>     2.1328     2.0237    29.9481 </r>
       <r>     2.1961     1.9269    30.0700 </r>
       <r>     2.2593     2.1581    30.2065 </r>
       <r>     2.3226     2.5687    30.3689 </r>
       <r>     2.3858     2.9091    30.5529 </r>
       <r>     2.4491     2.9884    30.7420 </r>
       <r>     2.5123     2.7968    30.9188 </r>
       <r>     2.5756     2.4732    31.0753 </r>
       <r>     2.6388     2.1547    31.2116 </r>
       <r>     2.7021     1.8735    31.3300 </r>
       <r>     2.7653     1.5855    31.4303 </r>
       <r>     2.8285     1.2604    31.5100 </r>
       <r>     2.8918     0.9307    31.5689 </r>
       <r>     2.9550     0.6722    31.6114 </r>
       <r>     3.0183     0.5470    31.6460 </r>
       <r>     3.0815     0.5559    31.6812 </r>
       <r>     3.1448     0.6333    31.7212 </r>
       <r>     3.2080     0.6940    31.7651 </r>
       <r>     3.2713     0.6976    31.8092 </r>
       <r>     3.3345     0.6710    31.8517 </r>
       <r>     3.3978     0.6721    31.8942 </r>
       <r>     3.4610     0.7379    31.9409 </r>
       <r>     3.5243     0.8678    31.9958 </r>
       <r>     3.5875     1.0346    32.0612 </r>
       <r>     3.6508     1.1915    32.1366 </r>
       <r>     3.7140     1.2816    32.2176 </r>
       <r>     3.7773     1.2724    32.2981 </r>
       <r>     3.8405     1.2008    32.3740 </r>
       <r>     3.9038     1.1679    32.4479 </r>
       <r>     3.9670     1.2620    32.5277 </r>
       <r>     4.0303     1.4733    32.6209 </r>
       <r>     4.0935     1.6995    32.7284 </r>
       <r>     4.1568     1.8535    32.8456 </r>
       <r>     4.2200     1.9615    32.9697 </r>
       <r>     4.2833     2.1302    33.1044 </r>
       <r>     4.3465     2.4225    33.2576 </r>
       <r>     4.4097     2.7989    33.4347 </r>
       <r>     4.4730     3.1926    33.6366 </r>
       <r>     4.5362     3.5938    33.8639 </r>
       <r>     4.5995     4.0152    34.1178 </r>
       <r>     4.6627     4.4077    34.3966 </r>
       <r>     4.7260     4.6829    34.6928 </r>
       <r>     4.7892     4.8246    34.9980 </r>
       <r>     4.8525     4.9205    35.3092 </r>
       <r>     4.9157     5.0506    35.6286 </r>
       <r>     4.9790     5.1701    35.9556 </r>
       <r>     5.0422     5.1481    36.2812 </r>
       <r>     5.1055     4.9284    36.5929 </r>
       <r>     5.1687     4.6144    36.8848 </r>
       <r>     5.2320     4.3627    37.1607 </r>
       <r>     5.2952     4.2239    37.4279 </r>
       <r>     5.3585     4.1313    37.6892 </r>
       <r>     5.4217     4.0096    37.9428 </r>
       <r>     5.4850     3.8259    38.1847 </r>
       <r>     5.5482     3.5529    38.4095 </r>
       <r>     5.6115     3.1716    38.6100 </r>
       <r>     5.6747     2.7332    38.7829 </r>
       <r>     5.7380     2.3553    38.9319 </r>
       <r>     5.8012     2.1160    39.0657 </r>
       <r>     5.8645     1.9825    39.1911 </r>
       <r>     5.9277     1.8710    39.3094 </r>
       <r>     5.9909     1.7494    39.4201 </r>
       <r>     6.0542     1.6536    39.5247 </r>
       <r>     6.1174     1.6113    39.6266 </r>
       <r>     6.1807     1.5759    39.7263 </r>
       <r>     6.2439     1.4518    39.8181 </r>
       <r>     6.3072     1.1873    39.8932 </r>
       <r>     6.3704     0.8300    39.9457 </r>
       <r>     6.4337     0.4861    39.9764 </r>
       <r>     6.4969     0.2361    39.9914 </r>
       <r>     6.5602     0.0947    39.9973 </r>
       <r>     6.6234     0.0312    39.9993 </r>
       <r>     6.6867     0.0085    39.9999 </r>
       <r>     6.7499     0.0019    40.0000 </r>
       <r>     6.8132     0.0003    40.0000 </r>
       <r>     6.8764     0.0001    40.0000 </r>
       <r>     6.9397     0.0000    40.0000 </r>
       <r>     7.0029     0.0000    40.0000 </r>
       <r>     7.0662     0.0000    40.0000 </r>
       <r>     7.1294     0.0000    40.0000 </r>
       <r>     7.1927     0.0000    40.0000 </r>
       <r>     7.2559     0.0000    40.0000 </r>
       <r>     7.3192     0.0000    40.0000 </r>
       <r>     7.3824     0.0000    40.0000 </r>
       <r>     7.4457     0.0000    40.0000 </r>
       <r>     7.5089     0.0000    40.0000 </r>
       <r>     7.5721     0.0000    40.0000 </r>
       <r>     7.6354     0.0000    40.0000 </r>
       <r>     7.6986     0.0000    40.0000 </r>
       <r>     7.7619     0.0000    40.0000 </r>
       <r>     7.8251     0.0000    40.0000 </r>
       <r>     7.8884     0.0000    40.0000 </r>
       <r>     7.9516     0.0000    40.0000 </r>
       <r>     8.0149     0.0000    40.0000 </r>
       <r>     8.0781     0.0000    40.0000 </r>
       <r>     8.1414     0.0000    40.0000 </r>
       <r>     8.2046     0.0000    40.0000 </r>
      </set>
     </set>
    </array>
   </total>
  </dos>
 </calculation>
 <structure name="finalpos" >
  <crystal>
   <varray name="basis" >
    <v>       5.76286300       0.00000000       0.00000000 </v>
    <v>       0.00000000       5.76286300       0.00000000 </v>
    <v>       0.00000000       0.00000000       5.76286300 </v>
   </varray>
   <i name="volume">    191.38808007 </i>
   <varray name="rec_basis" >
    <v>       0.17352486       0.00000000       0.00000000 </v>
    <v>       0.00000000       0.17352486       0.00000000 </v>
    <v>       0.00000000       0.00000000       0.17352486 </v>
   </varray>
  </crystal>
  <varray name="positions" >
   <v>       0.75000000       0.75000000       0.75000000 </v>
   <v>       0.50000000       0.00000000       0.00000000 </v>
   <v>       0.75000000       0.25000000       0.25000000 </v>
   <v>       0.50000000       0.50000000       0.50000000 </v>
   <v>       0.25000000       0.75000000       0.25000000 </v>
   <v>       0.00000000       0.00000000       0.50000000 </v>
   <v>       0.25000000       0.25000000       0.75000000 </v>
   <v>       0.00000000       0.50000000       0.00000000 </v>
  </varray>
 </structure>
</modeling>
