   8   8   0   0
  0.2392351E+02  0.5762863E-09  0.5762863E-09  0.5762863E-09  0.5000000E-15
  1.000000000000000E-004
  CAR 
 unknown system                          
      8.38080975    -10.84598413  301      0.75217519      1.00000000
    -10.846  0.0000E+00  0.0000E+00
    -10.782  0.0000E+00  0.0000E+00
    -10.718  0.0000E+00  0.0000E+00
    -10.654  0.0000E+00  0.0000E+00
    -10.590  0.0000E+00  0.0000E+00
    -10.526  0.0000E+00  0.0000E+00
    -10.461  0.0000E+00  0.0000E+00
    -10.397  0.0000E+00  0.0000E+00
    -10.333  0.0000E+00  0.0000E+00
    -10.269  0.0000E+00  0.0000E+00
    -10.205  0.0000E+00  0.0000E+00
    -10.141  0.0000E+00  0.0000E+00
    -10.077  0.0000E+00  0.0000E+00
    -10.013  0.2376E-17  0.1523E-18
     -9.949  0.2566E-15  0.1660E-16
     -9.885  0.8690E-14  0.5735E-15
     -9.821  0.2455E-12  0.1631E-13
     -9.756  0.5680E-11  0.3804E-12
     -9.692  0.1079E-09  0.7298E-11
     -9.628  0.1686E-08  0.1154E-09
     -9.564  0.2167E-07  0.1504E-08
     -9.500  0.2295E-06  0.1621E-07
     -9.436  0.2005E-05  0.1447E-06
     -9.372  0.1448E-04  0.1073E-05
     -9.308  0.8665E-04  0.6626E-05
     -9.244  0.4307E-03  0.3423E-04
     -9.180  0.1784E-02  0.1486E-03
     -9.116  0.6190E-02  0.5453E-03
     -9.051  0.1808E-01  0.1704E-02
     -8.987  0.4477E-01  0.4573E-02
     -8.923  0.9490E-01  0.1066E-01
     -8.859  0.1742E+00  0.2182E-01
     -8.795  0.2812E+00  0.3984E-01
     -8.731  0.4060E+00  0.6586E-01
     -8.667  0.5350E+00  0.1002E+00
     -8.603  0.6571E+00  0.1423E+00
     -8.539  0.7668E+00  0.1914E+00
     -8.475  0.8640E+00  0.2468E+00
     -8.411  0.9511E+00  0.3077E+00
     -8.347  0.1031E+01  0.3738E+00
     -8.282  0.1105E+01  0.4446E+00
     -8.218  0.1175E+01  0.5199E+00
     -8.154  0.1243E+01  0.5996E+00
     -8.090  0.1307E+01  0.6834E+00
     -8.026  0.1370E+01  0.7712E+00
     -7.962  0.1432E+01  0.8630E+00
     -7.898  0.1493E+01  0.9586E+00
     -7.834  0.1552E+01  0.1058E+01
     -7.770  0.1611E+01  0.1161E+01
     -7.706  0.1670E+01  0.1268E+01
     -7.642  0.1729E+01  0.1379E+01
     -7.577  0.1787E+01  0.1494E+01
     -7.513  0.1846E+01  0.1612E+01
     -7.449  0.1907E+01  0.1734E+01
     -7.385  0.1970E+01  0.1861E+01
     -7.321  0.2032E+01  0.1991E+01
     -7.257  0.2096E+01  0.2125E+01
     -7.193  0.2165E+01  0.2264E+01
     -7.129  0.2240E+01  0.2407E+01
     -7.065  0.2318E+01  0.2556E+01
     -7.001  0.2400E+01  0.2710E+01
     -6.937  0.2492E+01  0.2869E+01
     -6.872  0.2604E+01  0.3036E+01
     -6.808  0.2735E+01  0.3212E+01
     -6.744  0.2883E+01  0.3396E+01
     -6.680  0.3039E+01  0.3591E+01
     -6.616  0.3192E+01  0.3796E+01
     -6.552  0.3321E+01  0.4009E+01
     -6.488  0.3403E+01  0.4227E+01
     -6.424  0.3421E+01  0.4446E+01
     -6.360  0.3383E+01  0.4663E+01
     -6.296  0.3310E+01  0.4875E+01
     -6.232  0.3229E+01  0.5082E+01
     -6.167  0.3148E+01  0.5284E+01
     -6.103  0.3061E+01  0.5480E+01
     -6.039  0.2963E+01  0.5670E+01
     -5.975  0.2856E+01  0.5853E+01
     -5.911  0.2753E+01  0.6029E+01
     -5.847  0.2663E+01  0.6200E+01
     -5.783  0.2583E+01  0.6365E+01
     -5.719  0.2497E+01  0.6525E+01
     -5.655  0.2388E+01  0.6678E+01
     -5.591  0.2262E+01  0.6823E+01
     -5.527  0.2146E+01  0.6961E+01
     -5.462  0.2059E+01  0.7093E+01
     -5.398  0.1985E+01  0.7220E+01
     -5.334  0.1885E+01  0.7341E+01
     -5.270  0.1741E+01  0.7453E+01
     -5.206  0.1575E+01  0.7554E+01
     -5.142  0.1429E+01  0.7645E+01
     -5.078  0.1311E+01  0.7729E+01
     -5.014  0.1191E+01  0.7805E+01
     -4.950  0.1032E+01  0.7872E+01
     -4.886  0.8330E+00  0.7925E+01
     -4.822  0.6435E+00  0.7966E+01
     -4.757  0.5292E+00  0.8000E+01
     -4.693  0.5294E+00  0.8034E+01
     -4.629  0.6293E+00  0.8074E+01
     -4.565  0.7708E+00  0.8124E+01
     -4.501  0.8960E+00  0.8181E+01
     -4.437  0.9938E+00  0.8245E+01
     -4.373  0.1107E+01  0.8316E+01
     -4.309  0.1291E+01  0.8399E+01
     -4.245  0.1555E+01  0.8498E+01
     -4.181  0.1864E+01  0.8618E+01
     -4.117  0.2191E+01  0.8758E+01
     -4.053  0.2577E+01  0.8923E+01
     -3.988  0.3092E+01  0.9121E+01
     -3.924  0.3739E+01  0.9361E+01
     -3.860  0.4378E+01  0.9642E+01
     -3.796  0.4797E+01  0.9949E+01
     -3.732  0.4855E+01  0.1026E+02
     -3.668  0.4580E+01  0.1055E+02
     -3.604  0.4134E+01  0.1082E+02
     -3.540  0.3692E+01  0.1106E+02
     -3.476  0.3348E+01  0.1127E+02
     -3.412  0.3103E+01  0.1147E+02
     -3.348  0.2914E+01  0.1166E+02
     -3.283  0.2736E+01  0.1183E+02
     -3.219  0.2557E+01  0.1199E+02
     -3.155  0.2387E+01  0.1215E+02
     -3.091  0.2247E+01  0.1229E+02
     -3.027  0.2149E+01  0.1243E+02
     -2.963  0.2081E+01  0.1256E+02
     -2.899  0.2018E+01  0.1269E+02
     -2.835  0.1944E+01  0.1282E+02
     -2.771  0.1857E+01  0.1294E+02
     -2.707  0.1764E+01  0.1305E+02
     -2.643  0.1674E+01  0.1316E+02
     -2.578  0.1604E+01  0.1326E+02
     -2.514  0.1560E+01  0.1336E+02
     -2.450  0.1530E+01  0.1346E+02
     -2.386  0.1488E+01  0.1355E+02
     -2.322  0.1428E+01  0.1364E+02
     -2.258  0.1364E+01  0.1373E+02
     -2.194  0.1309E+01  0.1382E+02
     -2.130  0.1258E+01  0.1390E+02
     -2.066  0.1209E+01  0.1397E+02
     -2.002  0.1173E+01  0.1405E+02
     -1.938  0.1153E+01  0.1412E+02
     -1.873  0.1133E+01  0.1419E+02
     -1.809  0.1092E+01  0.1426E+02
     -1.745  0.1036E+01  0.1433E+02
     -1.681  0.9964E+00  0.1440E+02
     -1.617  0.1001E+01  0.1446E+02
     -1.553  0.1063E+01  0.1453E+02
     -1.489  0.1198E+01  0.1460E+02
     -1.425  0.1435E+01  0.1470E+02
     -1.361  0.1800E+01  0.1481E+02
     -1.297  0.2279E+01  0.1496E+02
     -1.233  0.2811E+01  0.1514E+02
     -1.168  0.3323E+01  0.1535E+02
     -1.104  0.3755E+01  0.1559E+02
     -1.040  0.4070E+01  0.1585E+02
     -0.976  0.4249E+01  0.1612E+02
     -0.912  0.4297E+01  0.1640E+02
     -0.848  0.4247E+01  0.1667E+02
     -0.784  0.4146E+01  0.1694E+02
     -0.720  0.4043E+01  0.1720E+02
     -0.656  0.3970E+01  0.1745E+02
     -0.592  0.3939E+01  0.1770E+02
     -0.528  0.3937E+01  0.1796E+02
     -0.464  0.3950E+01  0.1821E+02
     -0.399  0.3969E+01  0.1846E+02
     -0.335  0.4000E+01  0.1872E+02
     -0.271  0.4052E+01  0.1898E+02
     -0.207  0.4125E+01  0.1924E+02
     -0.143  0.4206E+01  0.1951E+02
     -0.079  0.4293E+01  0.1979E+02
     -0.015  0.4402E+01  0.2007E+02
      0.049  0.4553E+01  0.2036E+02
      0.113  0.4746E+01  0.2067E+02
      0.177  0.4952E+01  0.2098E+02
      0.241  0.5128E+01  0.2131E+02
      0.306  0.5250E+01  0.2165E+02
      0.370  0.5324E+01  0.2199E+02
      0.434  0.5357E+01  0.2233E+02
      0.498  0.5349E+01  0.2268E+02
      0.562  0.5304E+01  0.2302E+02
      0.626  0.5237E+01  0.2335E+02
      0.690  0.5167E+01  0.2368E+02
      0.754  0.5100E+01  0.2401E+02
      0.818  0.5031E+01  0.2433E+02
      0.882  0.4960E+01  0.2465E+02
      0.946  0.4891E+01  0.2496E+02
      1.011  0.4827E+01  0.2527E+02
      1.075  0.4762E+01  0.2558E+02
      1.139  0.4693E+01  0.2588E+02
      1.203  0.4628E+01  0.2618E+02
      1.267  0.4569E+01  0.2647E+02
      1.331  0.4504E+01  0.2676E+02
      1.395  0.4428E+01  0.2704E+02
      1.459  0.4354E+01  0.2732E+02
      1.523  0.4300E+01  0.2760E+02
      1.587  0.4255E+01  0.2787E+02
      1.651  0.4195E+01  0.2814E+02
      1.716  0.4114E+01  0.2840E+02
      1.780  0.4036E+01  0.2866E+02
      1.844  0.3977E+01  0.2891E+02
      1.908  0.3919E+01  0.2917E+02
      1.972  0.3822E+01  0.2941E+02
      2.036  0.3667E+01  0.2965E+02
      2.100  0.3468E+01  0.2987E+02
      2.164  0.3243E+01  0.3008E+02
      2.228  0.2998E+01  0.3027E+02
      2.292  0.2733E+01  0.3044E+02
      2.356  0.2473E+01  0.3060E+02
      2.421  0.2244E+01  0.3075E+02
      2.485  0.2054E+01  0.3088E+02
      2.549  0.1888E+01  0.3100E+02
      2.613  0.1736E+01  0.3111E+02
      2.677  0.1597E+01  0.3121E+02
      2.741  0.1474E+01  0.3131E+02
      2.805  0.1362E+01  0.3139E+02
      2.869  0.1252E+01  0.3147E+02
      2.933  0.1143E+01  0.3155E+02
      2.997  0.1041E+01  0.3161E+02
      3.061  0.9501E+00  0.3167E+02
      3.125  0.8674E+00  0.3173E+02
      3.190  0.7886E+00  0.3178E+02
      3.254  0.7149E+00  0.3183E+02
      3.318  0.6554E+00  0.3187E+02
      3.382  0.6235E+00  0.3191E+02
      3.446  0.6297E+00  0.3195E+02
      3.510  0.6764E+00  0.3199E+02
      3.574  0.7574E+00  0.3204E+02
      3.638  0.8615E+00  0.3210E+02
      3.702  0.9785E+00  0.3216E+02
      3.766  0.1105E+01  0.3223E+02
      3.830  0.1245E+01  0.3231E+02
      3.895  0.1401E+01  0.3240E+02
      3.959  0.1566E+01  0.3250E+02
      4.023  0.1732E+01  0.3261E+02
      4.087  0.1898E+01  0.3273E+02
      4.151  0.2072E+01  0.3286E+02
      4.215  0.2261E+01  0.3301E+02
      4.279  0.2463E+01  0.3317E+02
      4.343  0.2662E+01  0.3334E+02
      4.407  0.2846E+01  0.3352E+02
      4.471  0.3019E+01  0.3371E+02
      4.535  0.3196E+01  0.3392E+02
      4.600  0.3398E+01  0.3414E+02
      4.664  0.3637E+01  0.3437E+02
      4.728  0.3917E+01  0.3462E+02
      4.792  0.4225E+01  0.3489E+02
      4.856  0.4536E+01  0.3518E+02
      4.920  0.4816E+01  0.3549E+02
      4.984  0.5030E+01  0.3581E+02
      5.048  0.5152E+01  0.3614E+02
      5.112  0.5166E+01  0.3647E+02
      5.176  0.5077E+01  0.3680E+02
      5.240  0.4914E+01  0.3711E+02
      5.305  0.4702E+01  0.3742E+02
      5.369  0.4451E+01  0.3770E+02
      5.433  0.4170E+01  0.3797E+02
      5.497  0.3874E+01  0.3822E+02
      5.561  0.3579E+01  0.3845E+02
      5.625  0.3291E+01  0.3866E+02
      5.689  0.3004E+01  0.3885E+02
      5.753  0.2714E+01  0.3902E+02
      5.817  0.2429E+01  0.3918E+02
      5.881  0.2163E+01  0.3932E+02
      5.945  0.1922E+01  0.3944E+02
      6.010  0.1711E+01  0.3955E+02
      6.074  0.1526E+01  0.3965E+02
      6.138  0.1352E+01  0.3974E+02
      6.202  0.1173E+01  0.3981E+02
      6.266  0.9741E+00  0.3987E+02
      6.330  0.7565E+00  0.3992E+02
      6.394  0.5376E+00  0.3996E+02
      6.458  0.3427E+00  0.3998E+02
      6.522  0.1926E+00  0.3999E+02
      6.586  0.9408E-01  0.4000E+02
      6.650  0.3946E-01  0.4000E+02
      6.714  0.1406E-01  0.4000E+02
      6.779  0.4226E-02  0.4000E+02
      6.843  0.1064E-02  0.4000E+02
      6.907  0.2232E-03  0.4000E+02
      6.971  0.3886E-04  0.4000E+02
      7.035  0.5596E-05  0.4000E+02
      7.099  0.6651E-06  0.4000E+02
      7.163  0.6508E-07  0.4000E+02
      7.227  0.5235E-08  0.4000E+02
      7.291  0.3457E-09  0.4000E+02
      7.355  0.1872E-10  0.4000E+02
      7.419  0.8310E-12  0.4000E+02
      7.484  0.3015E-13  0.4000E+02
      7.548  0.9125E-15  0.4000E+02
      7.612  0.0000E+00  0.4000E+02
      7.676  0.0000E+00  0.4000E+02
      7.740  0.0000E+00  0.4000E+02
      7.804  0.0000E+00  0.4000E+02
      7.868  0.0000E+00  0.4000E+02
      7.932  0.0000E+00  0.4000E+02
      7.996  0.0000E+00  0.4000E+02
      8.060  0.0000E+00  0.4000E+02
      8.124  0.0000E+00  0.4000E+02
      8.189  0.0000E+00  0.4000E+02
      8.253  0.0000E+00  0.4000E+02
      8.317  0.0000E+00  0.4000E+02
      8.381  0.0000E+00  0.4000E+02
