    8    8    1    1
  0.2392351E+02  0.5762863E-09  0.5762863E-09  0.5762863E-09  0.5000000E-15
  1.000000000000000E-004
  CAR 
 unknown system                          
   24  165   20
 
  0.2777778E-01  0.2777778E-01  0.2777778E-01  0.1371742E-02
   1       -8.845984
   2       -5.048149
   3       -5.048149
   4       -5.048149
   5       -4.625085
   6       -4.625084
   7       -4.625084
   8        0.184295
   9        0.184295
  10        0.184295
  11        0.240002
  12        0.240002
  13        0.240002
  14        3.452146
  15        3.584557
  16        3.584557
  17        3.584562
  18        3.651784
  19        3.651870
  20        3.702460
 
  0.8333333E-01  0.2777778E-01  0.2777778E-01  0.4115226E-02
   1       -8.820280
   2       -5.452843
   3       -5.038105
   4       -5.038105
   5       -4.617949
   6       -4.617949
   7       -4.185537
   8        0.054521
   9        0.054521
  10        0.208528
  11        0.208528
  12        0.213442
  13        0.268075
  14        3.103866
  15        3.491840
  16        3.526784
  17        3.557358
  18        3.689402
  19        3.689405
  20        3.827090
 
  0.1388889E+00  0.2777778E-01  0.2777778E-01  0.4115226E-02
   1       -8.768891
   2       -5.838466
   3       -5.018650
   4       -5.018650
   5       -4.604377
   6       -4.604377
   7       -3.730786
   8       -0.120784
   9       -0.120784
  10        0.103980
  11        0.103980
  12        0.270312
  13        0.325063
  14        2.669573
  15        3.233737
  16        3.302427
  17        3.496016
  18        3.927722
  19        3.927723
  20        3.991056
 
  0.1944444E+00  0.2777778E-01  0.2777778E-01  0.4115226E-02
   1       -8.691888
   2       -6.203960
   3       -4.991906
   4       -4.991906
   5       -4.586125
   6       -4.586125
   7       -3.263021
   8       -0.313178
   9       -0.313178
  10       -0.045977
  11       -0.045977
  12        0.356302
  13        0.408459
  14        2.200728
  15        2.932707
  16        2.985160
  17        3.495564
  18        4.190869
  19        4.279538
  20        4.279559
 
  0.2500000E+00  0.2777778E-01  0.2777778E-01  0.4115226E-02
   1       -8.589319
   2       -6.548159
   3       -4.960312
   4       -4.960312
   5       -4.565297
   6       -4.565297
   7       -2.784195
   8       -0.500079
   9       -0.500079
  10       -0.211831
  11       -0.211831
  12        0.470063
  13        0.519688
  14        1.715233
  15        2.619349
  16        2.652792
  17        3.525452
  18        4.426163
  19        4.718600
  20        4.718691
 
  0.3055556E+00  0.2777778E-01  0.2777778E-01  0.4115226E-02
   1       -8.461249
   2       -6.870273
   3       -4.927120
   4       -4.927120
   5       -4.544490
   6       -4.544490
   7       -2.296012
   8       -0.664823
   9       -0.664823
  10       -0.369698
  11       -0.369698
  12        0.611736
  13        0.658015
  14        1.221123
  15        2.309224
  16        2.325264
  17        3.585064
  18        4.696386
  19        4.742542
  20        5.224223
 
  0.3611111E+00  0.2777778E-01  0.2777778E-01  0.4115226E-02
   1       -8.307950
   2       -7.170024
   3       -4.896557
   4       -4.896557
   5       -4.526240
   6       -4.526240
   7       -1.800544
   8       -0.796173
   9       -0.796173
  10       -0.502928
  11       -0.502928
  12        0.720768
  13        0.780871
  14        0.822784
  15        2.010860
  16        2.012052
  17        3.673385
  18        4.510443
  19        4.999782
  20        5.782014
 
  0.4166667E+00  0.2777778E-01  0.2777778E-01  0.4115226E-02
   1       -8.129526
   2       -7.446166
   3       -4.873035
   4       -4.873035
   5       -4.512833
   6       -4.512833
   7       -1.299780
   8       -0.888100
   9       -0.888100
  10       -0.598647
  11       -0.598647
  12        0.217226
  13        0.976919
  14        1.013482
  15        1.718475
  16        1.729392
  17        3.789947
  18        4.296254
  19        5.332563
  20        6.380810
 
  0.4722222E+00  0.2777778E-01  0.2777778E-01  0.4115226E-02
   1       -7.926211
   2       -7.698282
   3       -4.860126
   4       -4.860126
   5       -4.505881
   6       -4.505881
   7       -0.934829
   8       -0.934829
   9       -0.793475
  10       -0.649373
  11       -0.649373
  12       -0.288033
  13        1.199420
  14        1.229178
  15        1.446771
  16        1.468570
  17        3.934202
  18        4.103343
  19        5.687730
  20        6.045074
 
  0.8333333E-01  0.8333333E-01  0.2777778E-01  0.4115226E-02
   1       -8.794606
   2       -5.439320
   3       -5.439320
   4       -5.032557
   5       -4.607739
   6       -4.183619
   7       -4.183619
   8       -0.144493
   9        0.083790
  10        0.083790
  11        0.238604
  12        0.238604
  13        0.288479
  14        2.753115
  15        3.352109
  16        3.617107
  17        3.653302
  18        3.660173
  19        3.660174
  20        3.993153
 
  0.1388889E+00  0.8333333E-01  0.2777778E-01  0.8230453E-02
   1       -8.743304
   2       -5.822468
   3       -5.413005
   4       -5.023008
   5       -4.587577
   6       -4.180788
   7       -3.735274
   8       -0.360099
   9       -0.093646
  10        0.139786
  11        0.142006
  12        0.281684
  13        0.298359
  14        2.337708
  15        3.095764
  16        3.481708
  17        3.643515
  18        3.767929
  19        3.918758
  20        4.141739
 
  0.1944444E+00  0.8333333E-01  0.2777778E-01  0.8230453E-02
   1       -8.666413
   2       -6.185929
   3       -5.375120
   4       -5.012016
   5       -4.558066
   6       -4.179071
   7       -3.275502
   8       -0.568686
   9       -0.291552
  10        0.001383
  11        0.200279
  12        0.228939
  13        0.387390
  14        1.900536
  15        2.794591
  16        3.199625
  17        3.652344
  18        4.025330
  19        4.282513
  20        4.330409
 
  0.2500000E+00  0.8333333E-01  0.2777778E-01  0.8230453E-02
   1       -8.563986
   2       -6.528510
   3       -5.327714
   4       -5.003247
   5       -4.519823
   6       -4.180944
   7       -2.806014
   8       -0.753586
   9       -0.488847
  10       -0.145964
  11        0.072561
  12        0.344558
  13        0.506585
  14        1.452532
  15        2.479881
  16        2.861776
  17        3.689379
  18        4.398347
  19        4.556123
  20        4.728481
 
  0.3055556E+00  0.8333333E-01  0.2777778E-01  0.8230453E-02
   1       -8.436153
   2       -6.849488
   3       -5.273468
   4       -5.000652
   5       -4.474319
   6       -4.189291
   7       -2.330048
   8       -0.903245
   9       -0.671288
  10       -0.278042
  11       -0.071711
  12        0.487391
  13        0.655609
  14        0.997344
  15        2.167881
  16        2.512561
  17        3.754841
  18        4.817094
  19        4.859002
  20        4.933398
 
  0.3611111E+00  0.8333333E-01  0.2777778E-01  0.8230453E-02
   1       -8.283121
   2       -7.147948
   3       -5.215591
   4       -5.008164
   5       -4.423608
   6       -4.206534
   7       -1.849786
   8       -1.009858
   9       -0.828126
  10       -0.377506
  11       -0.209771
  12        0.535520
  13        0.657302
  14        0.834739
  15        1.867161
  16        2.172005
  17        3.848416
  18        4.701243
  19        5.111272
  20        5.385992
 
  0.4166667E+00  0.8333333E-01  0.2777778E-01  0.8230453E-02
   1       -8.105054
   2       -7.423359
   3       -5.158192
   4       -5.028095
   5       -4.370539
   6       -4.234299
   7       -1.367324
   8       -1.068322
   9       -0.952409
  10       -0.434320
  11       -0.324966
  12        0.067445
  13        0.853084
  14        1.044496
  15        1.582686
  16        1.850464
  17        3.969568
  18        4.485089
  19        5.434455
  20        5.964871
 
  0.4722222E+00  0.8333333E-01  0.2777778E-01  0.8230453E-02
   1       -7.902197
   2       -7.674824
   3       -5.105374
   4       -5.060981
   5       -4.318846
   6       -4.272359
   7       -1.077073
   8       -1.037246
   9       -0.885010
  10       -0.443858
  11       -0.406304
  12       -0.405793
  13        1.073660
  14        1.284513
  15        1.317286
  16        1.553427
  17        4.117197
  18        4.289569
  19        5.777025
  20        6.116473
 
  0.1388889E+00  0.1388889E+00  0.2777778E-01  0.4115226E-02
   1       -8.692154
   2       -5.790993
   3       -5.790993
   4       -5.032493
   5       -4.554307
   6       -3.745215
   7       -3.745215
   8       -0.592414
   9       -0.039061
  10       -0.039061
  11        0.211117
  12        0.211117
  13        0.385903
  14        1.938915
  15        2.842325
  16        3.543514
  17        3.748584
  18        3.919378
  19        3.919378
  20        4.421734
 
  0.1944444E+00  0.1388889E+00  0.2777778E-01  0.8230453E-02
   1       -8.615494
   2       -6.150298
   3       -5.745052
   4       -5.049018
   5       -4.505882
   6       -3.762432
   7       -3.300790
   8       -0.800801
   9       -0.246080
  10        0.043203
  11        0.094403
  12        0.318422
  13        0.402262
  14        1.523366
  15        2.543928
  16        3.393834
  17        3.884636
  18        3.941160
  19        4.296856
  20        4.593434
 
  0.2500000E+00  0.1388889E+00  0.2777778E-01  0.8230453E-02
   1       -8.513391
   2       -6.489596
   3       -5.686065
   4       -5.074808
   5       -4.443553
   6       -3.789537
   7       -2.850548
   8       -0.973238
   9       -0.458607
  10       -0.022350
  11        0.152775
  12        0.343195
  13        0.461504
  14        1.102473
  15        2.232607
  16        3.105492
  17        3.988356
  18        4.164090
  19        4.752340
  20        4.803295
 
  0.3055556E+00  0.1388889E+00  0.2777778E-01  0.8230453E-02
   1       -8.386005
   2       -6.808047
   3       -5.616437
   4       -5.111962
   5       -4.369712
   6       -3.828851
   7       -2.397546
   8       -1.101939
   9       -0.661673
  10       -0.117657
  11        0.237109
  12        0.288954
  13        0.640967
  14        0.679445
  15        1.924532
  16        2.759326
  17        4.062077
  18        4.558885
  19        5.048944
  20        5.261921
 
  0.3611111E+00  0.1388889E+00  0.2777778E-01  0.8230453E-02
   1       -8.233535
   2       -7.104202
   3       -5.538785
   4       -5.161347
   5       -4.287114
   6       -3.881641
   7       -1.944450
   8       -1.180395
   9       -0.843480
  10       -0.177446
  11        0.113027
  12        0.253800
  13        0.451527
  14        0.856249
  15        1.628388
  16        2.397521
  17        4.162811
  18        5.031243
  19        5.040817
  20        5.327097
 
  0.4166667E+00  0.1388889E+00  0.2777778E-01  0.8230453E-02
   1       -8.056200
   2       -7.377887
   3       -5.456610
   4       -5.222768
   5       -4.199294
   6       -3.947574
   7       -1.494512
   8       -1.207506
   9       -0.995861
  10       -0.194482
  11       -0.175207
  12       -0.005528
  13        0.639664
  14        1.106367
  15        1.348917
  16        2.041398
  17        4.289543
  18        4.815272
  19        5.588911
  20        5.631989
 
  0.4722222E+00  0.1388889E+00  0.2777778E-01  0.8230453E-02
   1       -7.854249
   2       -7.627993
   3       -5.373870
   4       -5.294688
   5       -4.110543
   6       -4.025176
   7       -1.183605
   8       -1.111427
   9       -1.048505
  10       -0.608971
  11       -0.168995
  12       -0.103435
  13        0.852648
  14        1.089551
  15        1.389717
  16        1.702794
  17        4.441577
  18        4.617375
  19        5.950737
  20        6.186594
 
  0.1944444E+00  0.1944444E+00  0.2777778E-01  0.4115226E-02
   1       -8.539204
   2       -6.097880
   3       -6.097880
   4       -5.100484
   5       -4.434422
   6       -3.340954
   7       -3.340954
   8       -0.996888
   9       -0.174946
  10       -0.174946
  11        0.231368
  12        0.231368
  13        0.529394
  14        1.128142
  15        2.248917
  16        3.424391
  17        3.886769
  18        4.330477
  19        4.330478
  20        4.956692
 
  0.2500000E+00  0.1944444E+00  0.2777778E-01  0.8230453E-02
   1       -8.437619
   2       -6.432123
   3       -6.029726
   4       -5.165227
   5       -4.347344
   6       -3.397417
   7       -2.917914
   8       -1.148799
   9       -0.402414
  10       -0.076558
  11        0.152052
  12        0.410868
  13        0.568222
  14        0.729499
  15        1.941176
  16        3.260994
  17        4.044514
  18        4.387220
  19        4.794840
  20        5.148967
 
  0.3055556E+00  0.1944444E+00  0.2777778E-01  0.8230453E-02
   1       -8.310890
   2       -6.746317
   3       -5.947917
   4       -5.242708
   5       -4.247578
   6       -3.471131
   7       -2.496363
   8       -1.250285
   9       -0.623579
  10        0.049139
  11        0.097638
  12        0.331240
  13        0.530026
  14        0.631625
  15        1.637099
  16        2.968606
  17        4.345246
  18        4.468697
  19        5.316883
  20        5.376235
 
  0.3611111E+00  0.1944444E+00  0.2777778E-01  0.8230453E-02
   1       -8.159300
   2       -7.039141
   3       -5.854746
   4       -5.332040
   5       -4.137556
   6       -3.561126
   7       -2.078942
   8       -1.298880
   9       -0.826219
  10       -0.065791
  11        0.078563
  12        0.202014
  13        0.443636
  14        0.892160
  15        1.344978
  16        2.615846
  17        4.575480
  18        4.760803
  19        5.446411
  20        5.634372
 
  0.4166667E+00  0.1944444E+00  0.2777778E-01  0.8230453E-02
   1       -7.983082
   2       -7.310018
   3       -5.752791
   4       -5.431195
   5       -4.020361
   6       -3.665355
   7       -1.666775
   8       -1.295350
   9       -1.001292
  10       -0.462133
  11        0.097276
  12        0.338255
  13        0.381679
  14        1.070618
  15        1.189156
  16        2.243252
  17        4.706797
  18        5.235948
  19        5.263144
  20        5.914622
 
  0.4722222E+00  0.1944444E+00  0.2777778E-01  0.8230453E-02
   1       -7.782531
   2       -7.558060
   3       -5.645519
   4       -5.536951
   5       -3.899722
   6       -3.779792
   7       -1.260534
   8       -1.241683
   9       -1.141856
  10       -0.859843
  11        0.151572
  12        0.235594
  13        0.586958
  14        0.817147
  15        1.518339
  16        1.872865
  17        4.861799
  18        5.039344
  19        5.829316
  20        6.194627
 
  0.2500000E+00  0.2500000E+00  0.2777778E-01  0.4115226E-02
   1       -8.336747
   2       -6.356757
   3       -6.356757
   4       -5.269929
   5       -4.236173
   6       -3.007742
   7       -3.007742
   8       -1.273625
   9       -0.317796
  10       -0.317796
  11        0.351537
  12        0.373543
  13        0.373543
  14        0.717508
  15        1.637047
  16        3.254831
  17        4.067509
  18        4.859081
  19        4.859088
  20        5.570345
 
  0.3055556E+00  0.2500000E+00  0.2777778E-01  0.8230453E-02
   1       -8.211018
   2       -6.665196
   3       -6.265250
   4       -5.386800
   5       -4.112557
   6       -3.118411
   7       -2.622755
   8       -1.345559
   9       -0.554101
  10       -0.204185
  11       -0.025132
  12        0.362194
  13        0.639447
  14        0.776579
  15        1.336206
  16        3.075638
  17        4.245573
  18        4.946488
  19        5.386233
  20        5.675578
 
  0.3611111E+00  0.2500000E+00  0.2777778E-01  0.8230453E-02
   1       -8.060674
   2       -6.953347
   3       -6.159212
   4       -5.513215
   5       -3.978337
   6       -3.246705
   7       -2.243978
   8       -1.364166
   9       -0.773273
  10       -0.398134
  11       -0.061563
  12        0.381993
  13        0.757210
  14        0.945260
  15        1.048283
  16        2.777237
  17        4.566033
  18        5.057294
  19        5.835992
  20        5.966548
 
  0.4166667E+00  0.2500000E+00  0.2777778E-01  0.8230453E-02
   1       -7.886023
   2       -7.220316
   3       -6.041073
   4       -5.645819
   5       -3.835405
   6       -3.387657
   7       -1.870693
   8       -1.331810
   9       -0.967049
  10       -0.767688
  11        0.109290
  12        0.431521
  13        0.688382
  14        0.778633
  15        1.285509
  16        2.417682
  17        5.000800
  18        5.191496
  19        5.708210
  20        6.255891
 
  0.4722222E+00  0.2500000E+00  0.2777778E-01  0.8230453E-02
   1       -7.687424
   2       -7.465411
   3       -5.913725
   4       -5.780735
   5       -3.686855
   6       -3.535981
   7       -1.501402
   8       -1.251853
   9       -1.134591
  10       -1.128277
  11        0.307005
  12        0.506476
  13        0.530854
  14        0.597168
  15        1.652805
  16        2.035322
  17        5.347052
  18        5.519918
  19        5.521886
  20        6.101818
 
  0.3055556E+00  0.3055556E+00  0.2777778E-01  0.4115226E-02
   1       -8.086623
   2       -6.565672
   3       -6.565672
   4       -5.540557
   5       -3.966401
   6       -2.771911
   7       -2.771911
   8       -1.387083
   9       -0.452995
  10       -0.452995
  11       -0.380948
  12        0.670198
  13        0.670198
  14        0.945590
  15        1.039164
  16        3.032515
  17        4.287436
  18        5.477477
  19        5.477477
  20        5.637722
 
  0.3611111E+00  0.3055556E+00  0.2777778E-01  0.8230453E-02
   1       -7.937896
   2       -6.847668
   3       -6.449362
   4       -5.700268
   5       -3.809705
   6       -2.937269
   7       -2.430771
   8       -1.377486
   9       -0.732262
  10       -0.685696
  11       -0.321102
  12        0.724788
  13        0.755394
  14        1.014920
  15        1.022929
  16        2.837976
  17        4.483539
  18        5.590484
  19        5.731387
  20        6.051171
 
  0.4166667E+00  0.3055556E+00  0.2777778E-01  0.8230453E-02
   1       -7.765318
   2       -7.109559
   3       -6.318285
   4       -5.861926
   5       -3.643597
   6       -3.112646
   7       -2.093386
   8       -1.319440
   9       -1.078354
  10       -0.894880
  11       -0.159213
  12        0.490504
  13        0.798163
  14        1.020285
  15        1.388480
  16        2.533171
  17        4.821267
  18        5.724199
  19        5.917013
  20        6.284620
 
  0.4722222E+00  0.3055556E+00  0.2777778E-01  0.8230453E-02
   1       -7.569351
   2       -7.350488
   3       -6.174584
   4       -6.021301
   5       -3.470027
   6       -3.291681
   7       -1.756913
   8       -1.419310
   9       -1.216442
  10       -1.073328
  11        0.030978
  12        0.248173
  13        0.882859
  14        0.963891
  15        1.778634
  16        2.168156
  17        5.270807
  18        5.802969
  19        5.874689
  20        6.016214
 
  0.3611111E+00  0.3611111E+00  0.2777778E-01  0.4115226E-02
   1       -7.791290
   2       -6.723029
   3       -6.723029
   4       -5.889025
   5       -3.631544
   6       -2.630849
   7       -2.630849
   8       -1.342311
   9       -1.062861
  10       -0.564780
  11       -0.564780
  12        0.476056
  13        1.097972
  14        1.097972
  15        1.209581
  16        2.765447
  17        4.541038
  18        5.655593
  19        6.162105
  20        6.162152
 
  0.4166667E+00  0.3611111E+00  0.2777778E-01  0.8230453E-02
   1       -7.621407
   2       -6.978469
   3       -6.581453
   4       -6.075147
   5       -3.443558
   6       -2.837269
   7       -2.325253
   8       -1.387270
   9       -1.261340
  10       -0.786357
  11       -0.412624
  12        0.216340
  13        1.184780
  14        1.302606
  15        1.489127
  16        2.557733
  17        4.751440
  18        5.699631
  19        6.093436
  20        6.261663
 
  0.4722222E+00  0.3611111E+00  0.2777778E-01  0.8230453E-02
   1       -7.428820
   2       -7.214075
   3       -6.424589
   4       -6.254847
   5       -3.247372
   6       -3.044105
   7       -2.017423
   8       -1.705355
   9       -1.139194
  10       -0.979226
  11       -0.230386
  12       -0.020166
  13        1.262616
  14        1.310992
  15        1.881279
  16        2.248879
  17        5.100813
  18        5.559225
  19        5.846745
  20        6.064867
 
  0.4166667E+00  0.4166667E+00  0.2777778E-01  0.4115226E-02
   1       -7.454948
   2       -6.828354
   3       -6.828354
   4       -6.281610
   5       -3.234892
   6       -2.559479
   7       -2.559479
   8       -1.691031
   9       -1.161236
  10       -0.644229
  11       -0.644229
  12       -0.037836
  13        1.502941
  14        1.572966
  15        1.572966
  16        2.463386
  17        4.818702
  18        5.564891
  19        5.841500
  20        5.841500
 
  0.4722222E+00  0.4166667E+00  0.2777778E-01  0.8230453E-02
   1       -7.266566
   2       -7.057148
   3       -6.660866
   4       -6.477832
   5       -3.016972
   6       -2.791112
   7       -2.276723
   8       -1.987654
   9       -1.022577
  10       -0.848950
  11       -0.470608
  12       -0.267959
  13        1.606623
  14        1.621021
  15        1.939049
  16        2.248322
  17        5.036104
  18        5.388460
  19        5.552765
  20        5.653579
 
  0.4722222E+00  0.4722222E+00  0.2777778E-01  0.4115226E-02
   1       -7.083437
   2       -6.881110
   3       -6.881110
   4       -6.687371
   5       -2.778010
   6       -2.531001
   7       -2.531001
   8       -2.263207
   9       -0.870211
  10       -0.685157
  11       -0.685157
  12       -0.490436
  13        1.818494
  14        1.926525
  15        1.926525
  16        2.142648
  17        5.103935
  18        5.315711
  19        5.315711
  20        5.367160
 
  0.8333333E-01  0.8333333E-01  0.8333333E-01  0.1371742E-02
   1       -8.768977
   2       -5.427725
   3       -5.427725
   4       -5.427725
   5       -4.181710
   6       -4.181710
   7       -4.181710
   8       -0.111971
   9       -0.111970
  10       -0.111970
  11        0.316775
  12        0.316775
  13        0.316775
  14        2.432985
  15        3.468476
  16        3.468477
  17        3.660129
  18        3.660130
  19        3.660130
  20        4.252495
 
  0.1388889E+00  0.8333333E-01  0.8333333E-01  0.4115226E-02
   1       -8.717757
   2       -5.807517
   3       -5.405046
   4       -5.405046
   5       -4.178766
   6       -4.178766
   7       -3.740907
   8       -0.323764
   9       -0.323764
  10       -0.045475
  11        0.310710
  12        0.310710
  13        0.372286
  14        2.037851
  15        3.224337
  16        3.396826
  17        3.678845
  18        3.786218
  19        3.786218
  20        4.365174
 
  0.1944444E+00  0.8333333E-01  0.8333333E-01  0.4115226E-02
   1       -8.640984
   2       -6.168598
   3       -5.373414
   4       -5.373414
   5       -4.175873
   6       -4.175873
   7       -3.289770
   8       -0.529895
   9       -0.529895
  10        0.054042
  11        0.233545
  12        0.233545
  13        0.456074
  14        1.622520
  15        2.935403
  16        3.137404
  17        3.715174
  18        4.048244
  19        4.048244
  20        4.525383
 
  0.2500000E+00  0.8333333E-01  0.8333333E-01  0.4115226E-02
   1       -8.538734
   2       -6.509362
   3       -5.335648
   4       -5.335648
   5       -4.174404
   6       -4.174404
   7       -2.831734
   8       -0.714099
   9       -0.714099
  10        0.113677
  11        0.113677
  12        0.187247
  13        0.566236
  14        1.199721
  15        2.631612
  16        2.791552
  17        3.773385
  18        4.422988
  19        4.422993
  20        4.728421
 
  0.3055556E+00  0.8333333E-01  0.8333333E-01  0.4115226E-02
   1       -8.411115
   2       -6.828926
   3       -5.295565
   4       -5.295565
   5       -4.175457
   6       -4.175457
   7       -2.369241
   8       -0.866334
   9       -0.866334
  10       -0.019151
  11       -0.019151
  12        0.354378
  13        0.703180
  14        0.773589
  15        2.329190
  16        2.419969
  17        3.855682
  18        4.884085
  19        4.884108
  20        4.970921
 
  0.3611111E+00  0.8333333E-01  0.8333333E-01  0.4115226E-02
   1       -8.258379
   2       -7.126398
   3       -5.258128
   4       -5.258128
   5       -4.178818
   6       -4.178818
   7       -1.906118
   8       -0.981040
   9       -0.981040
  10       -0.140324
  11       -0.140324
  12        0.342572
  13        0.555850
  14        0.865837
  15        2.037011
  16        2.049351
  17        3.962913
  18        4.853710
  19        5.248713
  20        5.410898
 
  0.4166667E+00  0.8333333E-01  0.8333333E-01  0.4115226E-02
   1       -8.080699
   2       -7.400767
   3       -5.228678
   4       -5.228678
   5       -4.183156
   6       -4.183156
   7       -1.444436
   8       -1.056861
   9       -1.056861
  10       -0.231449
  11       -0.231449
  12       -0.093786
  13        0.791827
  14        1.054377
  15        1.694337
  16        1.760333
  17        4.095687
  18        4.634214
  19        5.556444
  20        5.989344
 
  0.4722222E+00  0.8333333E-01  0.8333333E-01  0.4115226E-02
   1       -7.878286
   2       -7.651529
   3       -5.212316
   4       -5.212316
   5       -4.186009
   6       -4.186009
   7       -1.093808
   8       -1.093808
   9       -0.987288
  10       -0.536638
  11       -0.280269
  12       -0.280269
  13        1.061316
  14        1.267334
  15        1.363362
  16        1.503491
  17        4.252509
  18        4.433002
  19        5.882212
  20        6.198228
 
  0.1388889E+00  0.1388889E+00  0.8333333E-01  0.4115226E-02
   1       -8.666689
   2       -5.778262
   3       -5.778262
   4       -5.390438
   5       -4.174627
   6       -3.752806
   7       -3.752806
   8       -0.549888
   9       -0.251708
  10       -0.251707
  11        0.369253
  12        0.369253
  13        0.413149
  14        1.657816
  15        3.048776
  16        3.415729
  17        3.774090
  18        3.823578
  19        3.823578
  20        4.721734
 
  0.1944444E+00  0.1388889E+00  0.8333333E-01  0.8230453E-02
   1       -8.590160
   2       -6.134483
   3       -5.736004
   4       -5.371911
   5       -4.168482
   6       -3.772701
   7       -3.319540
   8       -0.751930
   9       -0.453042
  10       -0.142786
  11        0.300671
  12        0.430501
  13        0.456499
  14        1.258897
  15        2.763836
  16        3.278638
  17        3.881045
  18        3.912904
  19        4.094040
  20        4.857654
 
  0.2500000E+00  0.1388889E+00  0.8333333E-01  0.8230453E-02
   1       -8.488263
   2       -6.471657
   3       -5.682607
   4       -5.353533
   5       -4.159613
   6       -3.802137
   7       -2.882755
   8       -0.918441
   9       -0.636130
  10        0.002589
  11        0.196402
  12        0.375186
  13        0.573525
  14        0.856564
  15        2.454035
  16        2.994135
  17        3.960073
  18        4.192890
  19        4.472168
  20        5.035605
 
  0.3055556E+00  0.1388889E+00  0.8333333E-01  0.8230453E-02
   1       -8.361130
   2       -6.788114
   3       -5.621324
   4       -5.340859
   5       -4.146074
   6       -3.841659
   7       -2.446452
   8       -1.042815
   9       -0.794315
  10        0.087055
  11        0.184054
  12        0.275560
  13        0.454484
  14        0.720253
  15        2.138081
  16        2.649055
  17        4.061545
  18        4.587214
  19        4.934172
  20        5.253469
 
  0.3611111E+00  0.1388889E+00  0.8333333E-01  0.8230453E-02
   1       -8.208966
   2       -7.083066
   3       -5.555768
   4       -5.339167
   5       -4.124865
   6       -3.890267
   7       -2.013124
   8       -1.120651
   9       -0.924442
  10       -0.002250
  11        0.052983
  12        0.161506
  13        0.400431
  14        0.897699
  15        1.823866
  16        2.291920
  17        4.185841
  18        5.068308
  19        5.113433
  20        5.461954
 
  0.4166667E+00  0.1388889E+00  0.8333333E-01  0.8230453E-02
   1       -8.032040
   2       -7.355629
   3       -5.490797
   4       -5.353162
   5       -4.093678
   6       -3.944813
   7       -1.586461
   8       -1.153971
   9       -1.027281
  10       -0.349373
  11       -0.054138
  12        0.056742
  13        0.647458
  14        1.107320
  15        1.514664
  16        1.947954
  17        4.332945
  18        4.897666
  19        5.615193
  20        5.789296
 
  0.4722222E+00  0.1388889E+00  0.8333333E-01  0.8230453E-02
   1       -7.830576
   2       -7.605011
   3       -5.431916
   4       -5.384610
   5       -4.051448
   6       -4.000268
   7       -1.166870
   8       -1.145874
   9       -1.101985
  10       -0.755137
  11       -0.060561
  12       -0.021583
  13        0.920503
  14        1.211948
  15        1.351708
  16        1.632552
  17        4.502062
  18        4.691400
  19        6.084108
  20        6.211339
 
  0.1944444E+00  0.1944444E+00  0.8333333E-01  0.4115226E-02
   1       -8.514022
   2       -6.084430
   3       -6.084430
   4       -5.374177
   5       -4.155191
   6       -3.365415
   7       -3.365415
   8       -0.937915
   9       -0.338281
  10       -0.338281
  11        0.402349
  12        0.402349
  13        0.555778
  14        0.875731
  15        2.481777
  16        3.323532
  17        3.917340
  18        4.162699
  19        4.162699
  20        5.160851
 
  0.2500000E+00  0.1944444E+00  0.8333333E-01  0.8230453E-02
   1       -8.412655
   2       -6.415781
   3       -6.020145
   4       -5.385327
   5       -4.132937
   6       -3.428205
   7       -2.959171
   8       -1.079685
   9       -0.522336
  10       -0.187891
  11        0.322869
  12        0.489659
  13        0.540472