 running on   20 total cores
 distrk:  each k-point on   20 cores,    1 groups
 distr:  one band on    1 cores,   20 groups
 using from now: INCAR     
 vasp.5.3.3 18Dez12 (build Dec 13 2014 13:36:02) complex                        
  
 POSCAR found type information on POSCAR  Ga
 POSCAR found :  1 types and       8 ions
 scaLAPACK will be used

 ----------------------------------------------------------------------------- 
|                                                                             |
|           W    W    AA    RRRRR   N    N  II  N    N   GGGG   !!!           |
|           W    W   A  A   R    R  NN   N  II  NN   N  G    G  !!!           |
|           W    W  A    A  R    R  N N  N  II  N N  N  G       !!!           |
|           W WW W  AAAAAA  RRRRR   N  N N  II  N  N N  G  GGG   !            |
|           WW  WW  A    A  R   R   N   NN  II  N   NN  G    G                |
|           W    W  A    A  R    R  N    N  II  N    N   GGGG   !!!           |
|                                                                             |
|      For optimal performance we recommend that you set                      |
|        NPAR = 4 - approx SQRT( number of cores)                             |
|      (number of cores/NPAR must be integer)                                 |
|      This setting will greatly improve the performance of VASP for DFT.     |
|      The default NPAR=number of cores might be grossly inefficient          |
|      on modern multi-core architectures or massively parallel machines.     |
|      Do your own testing.                                                   |
|      Unfortunately you need to use the default for hybrid, GW and RPA       |
|      calculations.                                                          |
|                                                                             |
 ----------------------------------------------------------------------------- 

 LDA part: xc-table for Pade appr. of Perdew
 POSCAR, INCAR and KPOINTS ok, starting setup
 WARNING: small aliasing (wrap around) errors must be expected
 FFT: planning ...
 WAVECAR not read
 entering main loop
       N       E                     dE             d eps       ncg     rms          rms(c)
DAV:   1     0.111644192641E+02    0.11164E+02   -0.41967E+03  6640   0.316E+02
DAV:   2    -0.206041296380E+02   -0.31769E+02   -0.31403E+02 10360   0.594E+01
DAV:   3    -0.210217000618E+02   -0.41757E+00   -0.41673E+00  7160   0.926E+00
DAV:   4    -0.210226315081E+02   -0.93145E-03   -0.93119E-03 12220   0.376E-01
DAV:   5    -0.210226315603E+02   -0.52208E-07   -0.52240E-07  7080   0.237E-03    0.280E+00
RMM:   6    -0.209366277194E+02    0.86004E-01   -0.77723E-03  6601   0.650E-01    0.174E+00
RMM:   7    -0.208900702908E+02    0.46557E-01   -0.22255E-02  6614   0.106E+00    0.859E-02
RMM:   8    -0.208903751793E+02   -0.30489E-03   -0.43701E-04  5856   0.975E-02    0.196E-02
RMM:   9    -0.208904148470E+02   -0.39668E-04   -0.81798E-05  4337   0.466E-02
   1 F= -.20890415E+02 E0= -.20839734E+02  d E =-.101362E+00
