       N       E                     dE             d eps       ncg     rms          rms(c)
DAV:   1     0.111644192641E+02    0.11164E+02   -0.41967E+03  6640   0.316E+02
DAV:   2    -0.206041296380E+02   -0.31769E+02   -0.31403E+02 10360   0.594E+01
DAV:   3    -0.210217000618E+02   -0.41757E+00   -0.41673E+00  7160   0.926E+00
DAV:   4    -0.210226315081E+02   -0.93145E-03   -0.93119E-03 12220   0.376E-01
DAV:   5    -0.210226315603E+02   -0.52208E-07   -0.52240E-07  7080   0.237E-03    0.280E+00
RMM:   6    -0.209366277194E+02    0.86004E-01   -0.77723E-03  6601   0.650E-01    0.174E+00
RMM:   7    -0.208900702908E+02    0.46557E-01   -0.22255E-02  6614   0.106E+00    0.859E-02
RMM:   8    -0.208903751793E+02   -0.30489E-03   -0.43701E-04  5856   0.975E-02    0.196E-02
RMM:   9    -0.208904148470E+02   -0.39668E-04   -0.81798E-05  4337   0.466E-02
   1 F= -.20890415E+02 E0= -.20839734E+02  d E =-.101362E+00
