<?xml version="1.0" encoding="ISO-8859-1"?>
<modeling>
 <generator>
  <i name="program" type="string">vasp </i>
  <i name="version" type="string">5.3.3  </i>
  <i name="subversion" type="string">18Dez12 (build Dec 13 2014 13:36:02) complex                          parallel </i>
  <i name="platform" type="string">LinuxIFC </i>
  <i name="date" type="string">2018 11 27 </i>
  <i name="time" type="string">23:29:30 </i>
 </generator>
 <incar>
  <i type="string" name="PREC">normal</i>
  <i type="string" name="ALGO"> Fast</i>
  <i type="int" name="ISPIN">     1</i>
  <i type="int" name="IBRION">    -1</i>
  <i type="int" name="NSW">     0</i>
  <i type="int" name="ISYM">     1</i>
  <i type="int" name="ISMEAR">     0</i>
  <i name="SIGMA">      0.20000000</i>
  <i type="logical" name="LWAVE"> F  </i>
  <i type="logical" name="LCHARG"> F  </i>
 </incar>
 <kpoints>
  <generation param="Monkhorst-Pack">
   <v type="int" name="divisions">      18       18       18 </v>
   <v name="usershift">      0.00000000       0.00000000       0.00000000 </v>
   <v name="genvec1">      0.05555556       0.00000000       0.00000000 </v>
   <v name="genvec2">      0.00000000       0.05555556       0.00000000 </v>
   <v name="genvec3">      0.00000000       0.00000000       0.05555556 </v>
   <v name="shift">      0.50000000       0.50000000       0.50000000 </v>
  </generation>
  <varray name="kpointlist" >
   <v>       0.02777778       0.02777778       0.02777778 </v>
   <v>       0.08333333       0.02777778       0.02777778 </v>
   <v>       0.13888889       0.02777778       0.02777778 </v>
   <v>       0.19444444       0.02777778       0.02777778 </v>
   <v>       0.25000000       0.02777778       0.02777778 </v>
   <v>       0.30555556       0.02777778       0.02777778 </v>
   <v>       0.36111111       0.02777778       0.02777778 </v>
   <v>       0.41666667       0.02777778       0.02777778 </v>
   <v>       0.47222222       0.02777778       0.02777778 </v>
   <v>       0.08333333       0.08333333       0.02777778 </v>
   <v>       0.13888889       0.08333333       0.02777778 </v>
   <v>       0.19444444       0.08333333       0.02777778 </v>
   <v>       0.25000000       0.08333333       0.02777778 </v>
   <v>       0.30555556       0.08333333       0.02777778 </v>
   <v>       0.36111111       0.08333333       0.02777778 </v>
   <v>       0.41666667       0.08333333       0.02777778 </v>
   <v>       0.47222222       0.08333333       0.02777778 </v>
   <v>       0.13888889       0.13888889       0.02777778 </v>
   <v>       0.19444444       0.13888889       0.02777778 </v>
   <v>       0.25000000       0.13888889       0.02777778 </v>
   <v>       0.30555556       0.13888889       0.02777778 </v>
   <v>       0.36111111       0.13888889       0.02777778 </v>
   <v>       0.41666667       0.13888889       0.02777778 </v>
   <v>       0.47222222       0.13888889       0.02777778 </v>
   <v>       0.19444444       0.19444444       0.02777778 </v>
   <v>       0.25000000       0.19444444       0.02777778 </v>
   <v>       0.30555556       0.19444444       0.02777778 </v>
   <v>       0.36111111       0.19444444       0.02777778 </v>
   <v>       0.41666667       0.19444444       0.02777778 </v>
   <v>       0.47222222       0.19444444       0.02777778 </v>
   <v>       0.25000000       0.25000000       0.02777778 </v>
   <v>       0.30555556       0.25000000       0.02777778 </v>
   <v>       0.36111111       0.25000000       0.02777778 </v>
   <v>       0.41666667       0.25000000       0.02777778 </v>
   <v>       0.47222222       0.25000000       0.02777778 </v>
   <v>       0.30555556       0.30555556       0.02777778 </v>
   <v>       0.36111111       0.30555556       0.02777778 </v>
   <v>       0.41666667       0.30555556       0.02777778 </v>
   <v>       0.47222222       0.30555556       0.02777778 </v>
   <v>       0.36111111       0.36111111       0.02777778 </v>
   <v>       0.41666667       0.36111111       0.02777778 </v>
   <v>       0.47222222       0.36111111       0.02777778 </v>
   <v>       0.41666667       0.41666667       0.02777778 </v>
   <v>       0.47222222       0.41666667       0.02777778 </v>
   <v>       0.47222222       0.47222222       0.02777778 </v>
   <v>       0.08333333       0.08333333       0.08333333 </v>
   <v>       0.13888889       0.08333333       0.08333333 </v>
   <v>       0.19444444       0.08333333       0.08333333 </v>
   <v>       0.25000000       0.08333333       0.08333333 </v>
   <v>       0.30555556       0.08333333       0.08333333 </v>
   <v>       0.36111111       0.08333333       0.08333333 </v>
   <v>       0.41666667       0.08333333       0.08333333 </v>
   <v>       0.47222222       0.08333333       0.08333333 </v>
   <v>       0.13888889       0.13888889       0.08333333 </v>
   <v>       0.19444444       0.13888889       0.08333333 </v>
   <v>       0.25000000       0.13888889       0.08333333 </v>
   <v>       0.30555556       0.13888889       0.08333333 </v>
   <v>       0.36111111       0.13888889       0.08333333 </v>
   <v>       0.41666667       0.13888889       0.08333333 </v>
   <v>       0.47222222       0.13888889       0.08333333 </v>
   <v>       0.19444444       0.19444444       0.08333333 </v>
   <v>       0.25000000       0.19444444       0.08333333 </v>
   <v>       0.30555556       0.19444444       0.08333333 </v>
   <v>       0.36111111       0.19444444       0.08333333 </v>
   <v>       0.41666667       0.19444444       0.08333333 </v>
   <v>       0.47222222       0.19444444       0.08333333 </v>
   <v>       0.25000000       0.25000000       0.08333333 </v>
   <v>       0.30555556       0.25000000       0.08333333 </v>
   <v>       0.36111111       0.25000000       0.08333333 </v>
   <v>       0.41666667       0.25000000       0.08333333 </v>
   <v>       0.47222222       0.25000000       0.08333333 </v>
   <v>       0.30555556       0.30555556       0.08333333 </v>
   <v>       0.36111111       0.30555556       0.08333333 </v>
   <v>       0.41666667       0.30555556       0.08333333 </v>
   <v>       0.47222222       0.30555556       0.08333333 </v>
   <v>       0.36111111       0.36111111       0.08333333 </v>
   <v>       0.41666667       0.36111111       0.08333333 </v>
   <v>       0.47222222       0.36111111       0.08333333 </v>
   <v>       0.41666667       0.41666667       0.08333333 </v>
   <v>       0.47222222       0.41666667       0.08333333 </v>
   <v>       0.47222222       0.47222222       0.08333333 </v>
   <v>       0.13888889       0.13888889       0.13888889 </v>
   <v>       0.19444444       0.13888889       0.13888889 </v>
   <v>       0.25000000       0.13888889       0.13888889 </v>
   <v>       0.30555556       0.13888889       0.13888889 </v>
   <v>       0.36111111       0.13888889       0.13888889 </v>
   <v>       0.41666667       0.13888889       0.13888889 </v>
   <v>       0.47222222       0.13888889       0.13888889 </v>
   <v>       0.19444444       0.19444444       0.13888889 </v>
   <v>       0.25000000       0.19444444       0.13888889 </v>
   <v>       0.30555556       0.19444444       0.13888889 </v>
   <v>       0.36111111       0.19444444       0.13888889 </v>
   <v>       0.41666667       0.19444444       0.13888889 </v>
   <v>       0.47222222       0.19444444       0.13888889 </v>
   <v>       0.25000000       0.25000000       0.13888889 </v>
   <v>       0.30555556       0.25000000       0.13888889 </v>
   <v>       0.36111111       0.25000000       0.13888889 </v>
   <v>       0.41666667       0.25000000       0.13888889 </v>
   <v>       0.47222222       0.25000000       0.13888889 </v>
   <v>       0.30555556       0.30555556       0.13888889 </v>
   <v>       0.36111111       0.30555556       0.13888889 </v>
   <v>       0.41666667       0.30555556       0.13888889 </v>
   <v>       0.47222222       0.30555556       0.13888889 </v>
   <v>       0.36111111       0.36111111       0.13888889 </v>
   <v>       0.41666667       0.36111111       0.13888889 </v>
   <v>       0.47222222       0.36111111       0.13888889 </v>
   <v>       0.41666667       0.41666667       0.13888889 </v>
   <v>       0.47222222       0.41666667       0.13888889 </v>
   <v>       0.47222222       0.47222222       0.13888889 </v>
   <v>       0.19444444       0.19444444       0.19444444 </v>
   <v>       0.25000000       0.19444444       0.19444444 </v>
   <v>       0.30555556       0.19444444       0.19444444 </v>
   <v>       0.36111111       0.19444444       0.19444444 </v>
   <v>       0.41666667       0.19444444       0.19444444 </v>
   <v>       0.47222222       0.19444444       0.19444444 </v>
   <v>       0.25000000       0.25000000       0.19444444 </v>
   <v>       0.30555556       0.25000000       0.19444444 </v>
   <v>       0.36111111       0.25000000       0.19444444 </v>
   <v>       0.41666667       0.25000000       0.19444444 </v>
   <v>       0.47222222       0.25000000       0.19444444 </v>
   <v>       0.30555556       0.30555556       0.19444444 </v>
   <v>       0.36111111       0.30555556       0.19444444 </v>
   <v>       0.41666667       0.30555556       0.19444444 </v>
   <v>       0.47222222       0.30555556       0.19444444 </v>
   <v>       0.36111111       0.36111111       0.19444444 </v>
   <v>       0.41666667       0.36111111       0.19444444 </v>
   <v>       0.47222222       0.36111111       0.19444444 </v>
   <v>       0.41666667       0.41666667       0.19444444 </v>
   <v>       0.47222222       0.41666667       0.19444444 </v>
   <v>       0.47222222       0.47222222       0.19444444 </v>
   <v>       0.25000000       0.25000000       0.25000000 </v>
   <v>       0.30555556       0.25000000       0.25000000 </v>
   <v>       0.36111111       0.25000000       0.25000000 </v>
   <v>       0.41666667       0.25000000       0.25000000 </v>
   <v>       0.47222222       0.25000000       0.25000000 </v>
   <v>       0.30555556       0.30555556       0.25000000 </v>
   <v>       0.36111111       0.30555556       0.25000000 </v>
   <v>       0.41666667       0.30555556       0.25000000 </v>
   <v>       0.47222222       0.30555556       0.25000000 </v>
   <v>       0.36111111       0.36111111       0.25000000 </v>
   <v>       0.41666667       0.36111111       0.25000000 </v>
   <v>       0.47222222       0.36111111       0.25000000 </v>
   <v>       0.41666667       0.41666667       0.25000000 </v>
   <v>       0.47222222       0.41666667       0.25000000 </v>
   <v>       0.47222222       0.47222222       0.25000000 </v>
   <v>       0.30555556       0.30555556       0.30555556 </v>
   <v>       0.36111111       0.30555556       0.30555556 </v>
   <v>       0.41666667       0.30555556       0.30555556 </v>
   <v>       0.47222222       0.30555556       0.30555556 </v>
   <v>       0.36111111       0.36111111       0.30555556 </v>
   <v>       0.41666667       0.36111111       0.30555556 </v>
   <v>       0.47222222       0.36111111       0.30555556 </v>
   <v>       0.41666667       0.41666667       0.30555556 </v>
   <v>       0.47222222       0.41666667       0.30555556 </v>
   <v>       0.47222222       0.47222222       0.30555556 </v>
   <v>       0.36111111       0.36111111       0.36111111 </v>
   <v>       0.41666667       0.36111111       0.36111111 </v>
   <v>       0.47222222       0.36111111       0.36111111 </v>
   <v>       0.41666667       0.41666667       0.36111111 </v>
   <v>       0.47222222       0.41666667       0.36111111 </v>
   <v>       0.47222222       0.47222222       0.36111111 </v>
   <v>       0.41666667       0.41666667       0.41666667 </v>
   <v>       0.47222222       0.41666667       0.41666667 </v>
   <v>       0.47222222       0.47222222       0.41666667 </v>
   <v>       0.47222222       0.47222222       0.47222222 </v>
  </varray>
  <varray name="weights" >
   <v>       0.00137174 </v>
   <v>       0.00411523 </v>
   <v>       0.00411523 </v>
   <v>       0.00411523 </v>
   <v>       0.00411523 </v>
   <v>       0.00411523 </v>
   <v>       0.00411523 </v>
   <v>       0.00411523 </v>
   <v>       0.00411523 </v>
   <v>       0.00411523 </v>
   <v>       0.00823045 </v>
   <v>       0.00823045 </v>
   <v>       0.00823045 </v>
   <v>       0.00823045 </v>
   <v>       0.00823045 </v>
   <v>       0.00823045 </v>
   <v>       0.00823045 </v>
   <v>       0.00411523 </v>
   <v>       0.00823045 </v>
   <v>       0.00823045 </v>
   <v>       0.00823045 </v>
   <v>       0.00823045 </v>
   <v>       0.00823045 </v>
   <v>       0.00823045 </v>
   <v>       0.00411523 </v>
   <v>       0.00823045 </v>
   <v>       0.00823045 </v>
   <v>       0.00823045 </v>
   <v>       0.00823045 </v>
   <v>       0.00823045 </v>
   <v>       0.00411523 </v>
   <v>       0.00823045 </v>
   <v>       0.00823045 </v>
   <v>       0.00823045 </v>
   <v>       0.00823045 </v>
   <v>       0.00411523 </v>
   <v>       0.00823045 </v>
   <v>       0.00823045 </v>
   <v>       0.00823045 </v>
   <v>       0.00411523 </v>
   <v>       0.00823045 </v>
   <v>       0.00823045 </v>
   <v>       0.00411523 </v>
   <v>       0.00823045 </v>
   <v>       0.00411523 </v>
   <v>       0.00137174 </v>
   <v>       0.00411523 </v>
   <v>       0.00411523 </v>
   <v>       0.00411523 </v>
   <v>       0.00411523 </v>
   <v>       0.00411523 </v>
   <v>       0.00411523 </v>
   <v>       0.00411523 </v>
   <v>       0.00411523 </v>
   <v>       0.00823045 </v>
   <v>       0.00823045 </v>
   <v>       0.00823045 </v>
   <v>       0.00823045 </v>
   <v>       0.00823045 </v>
   <v>       0.00823045 </v>
   <v>       0.00411523 </v>
   <v>       0.00823045 </v>
   <v>       0.00823045 </v>
   <v>       0.00823045 </v>
   <v>       0.00823045 </v>
   <v>       0.00823045 </v>
   <v>       0.00411523 </v>
   <v>       0.00823045 </v>
   <v>       0.00823045 </v>
   <v>       0.00823045 </v>
   <v>       0.00823045 </v>
   <v>       0.00411523 </v>
   <v>       0.00823045 </v>
   <v>       0.00823045 </v>
   <v>       0.00823045 </v>
   <v>       0.00411523 </v>
   <v>       0.00823045 </v>
   <v>       0.00823045 </v>
   <v>       0.00411523 </v>
   <v>       0.00823045 </v>
   <v>       0.00411523 </v>
   <v>       0.00137174 </v>
   <v>       0.00411523 </v>
   <v>       0.00411523 </v>
   <v>       0.00411523 </v>
   <v>       0.00411523 </v>
   <v>       0.00411523 </v>
   <v>       0.00411523 </v>
   <v>       0.00411523 </v>
   <v>       0.00823045 </v>
   <v>       0.00823045 </v>
   <v>       0.00823045 </v>
   <v>       0.00823045 </v>
   <v>       0.00823045 </v>
   <v>       0.00411523 </v>
   <v>       0.00823045 </v>
   <v>       0.00823045 </v>
   <v>       0.00823045 </v>
   <v>       0.00823045 </v>
   <v>       0.00411523 </v>
   <v>       0.00823045 </v>
   <v>       0.00823045 </v>
   <v>       0.00823045 </v>
   <v>       0.00411523 </v>
   <v>       0.00823045 </v>
   <v>       0.00823045 </v>
   <v>       0.00411523 </v>
   <v>       0.00823045 </v>
   <v>       0.00411523 </v>
   <v>       0.00137174 </v>
   <v>       0.00411523 </v>
   <v>       0.00411523 </v>
   <v>       0.00411523 </v>
   <v>       0.00411523 </v>
   <v>       0.00411523 </v>
   <v>       0.00411523 </v>
   <v>       0.00823045 </v>
   <v>       0.00823045 </v>
   <v>       0.00823045 </v>
   <v>       0.00823045 </v>
   <v>       0.00411523 </v>
   <v>       0.00823045 </v>
   <v>       0.00823045 </v>
   <v>       0.00823045 </v>
   <v>       0.00411523 </v>
   <v>       0.00823045 </v>
   <v>       0.00823045 </v>
   <v>       0.00411523 </v>
   <v>       0.00823045 </v>
   <v>       0.00411523 </v>
   <v>       0.00137174 </v>
   <v>       0.00411523 </v>
   <v>       0.00411523 </v>
   <v>       0.00411523 </v>
   <v>       0.00411523 </v>
   <v>       0.00411523 </v>
   <v>       0.00823045 </v>
   <v>       0.00823045 </v>
   <v>       0.00823045 </v>
   <v>       0.00411523 </v>
   <v>       0.00823045 </v>
   <v>       0.00823045 </v>
   <v>       0.00411523 </v>
   <v>       0.00823045 </v>
   <v>       0.00411523 </v>
   <v>       0.00137174 </v>
   <v>       0.00411523 </v>
   <v>       0.00411523 </v>
   <v>       0.00411523 </v>
   <v>       0.00411523 </v>
   <v>       0.00823045 </v>
   <v>       0.00823045 </v>
   <v>       0.00411523 </v>
   <v>       0.00823045 </v>
   <v>       0.00411523 </v>
   <v>       0.00137174 </v>
   <v>       0.00411523 </v>
   <v>       0.00411523 </v>
   <v>       0.00411523 </v>
   <v>       0.00823045 </v>
   <v>       0.00411523 </v>
   <v>       0.00137174 </v>
   <v>       0.00411523 </v>
   <v>       0.00411523 </v>
   <v>       0.00137174 </v>
  </varray>
 </kpoints>
 <parameters>
  <separator name="general" >
   <i type="string" name="SYSTEM">unknown system</i>
   <i type="logical" name="LCOMPAT"> F  </i>
  </separator>
  <separator name="electronic" >
   <i type="string" name="PREC">normal</i>
   <i name="ENMAX">    134.67800000</i>
   <i name="ENAUG">    320.26400000</i>
   <i name="EDIFF">      0.00010000</i>
   <i type="int" name="IALGO">    68</i>
   <i type="int" name="IWAVPR">    10</i>
   <i type="int" name="NBANDS">    20</i>
   <i name="NELECT">     24.00000000</i>
   <i type="int" name="TURBO">     0</i>
   <i type="int" name="IRESTART">     0</i>
   <i type="int" name="NREBOOT">     0</i>
   <i type="int" name="NMIN">     0</i>
   <i name="EREF">      0.00000000</i>
   <separator name="electronic smearing" >
    <i type="int" name="ISMEAR">     0</i>
    <i name="SIGMA">      0.20000000</i>
    <i name="KSPACING">      0.50000000</i>
    <i type="logical" name="KGAMMA"> T  </i>
   </separator>
   <separator name="electronic projectors" >
    <i type="logical" name="LREAL"> F  </i>
    <v name="ROPT">      0.00000000</v>
    <i type="int" name="LMAXPAW">  -100</i>
    <i type="int" name="LMAXMIX">     2</i>
    <i type="logical" name="NLSPLINE"> F  </i>
   </separator>
   <separator name="electronic startup" >
    <i type="int" name="ISTART">     0</i>
    <i type="int" name="ICHARG">     2</i>
    <i type="int" name="INIWAV">     1</i>
   </separator>
   <separator name="electronic spin" >
    <i type="int" name="ISPIN">     1</i>
    <i type="logical" name="LNONCOLLINEAR"> F  </i>
    <v name="MAGMOM">      1.00000000      1.00000000      1.00000000      1.00000000      1.00000000      1.00000000      1.00000000      1.00000000</v>
    <i name="NUPDOWN">     -1.00000000</i>
    <i type="logical" name="LSORBIT"> F  </i>
    <v name="SAXIS">      0.00000000      0.00000000      1.00000000</v>
    <i type="logical" name="LSPIRAL"> F  </i>
    <v name="QSPIRAL">      0.00000000      0.00000000      0.00000000</v>
    <i type="logical" name="LZEROZ"> F  </i>
   </separator>
   <separator name="electronic exchange-correlation" >
    <i type="logical" name="LASPH"> F  </i>
    <i type="logical" name="LMETAGGA"> F  </i>
   </separator>
   <separator name="electronic convergence" >
    <i type="int" name="NELM">    60</i>
    <i type="int" name="NELMDL">    -5</i>
    <i type="int" name="NELMIN">     2</i>
    <i name="ENINI">    134.67800000</i>
    <separator name="electronic convergence detail" >
     <i type="logical" name="LDIAG"> T  </i>
     <i type="logical" name="LSUBROT"> T  </i>
     <i name="WEIMIN">      0.00000000</i>
     <i name="EBREAK">      0.00000125</i>
     <i name="DEPER">      0.30000000</i>
     <i type="int" name="NRMM">     4</i>
     <i name="TIME">      0.40000000</i>
    </separator>
   </separator>
   <separator name="electronic mixer" >
    <i name="AMIX">      0.40000000</i>
    <i name="BMIX">      1.00000000</i>
    <i name="AMIN">      0.10000000</i>
    <i name="AMIX_MAG">      1.60000000</i>
    <i name="BMIX_MAG">      1.00000000</i>
    <separator name="electronic mixer details" >
     <i type="int" name="IMIX">     4</i>
     <i type="int" name="MAXMIX">   -45</i>
     <i name="WC">    100.00000000</i>
     <i type="int" name="INIMIX">     1</i>
     <i type="int" name="MIXPRE">     1</i>
     <i type="int" name="MREMOVE">     5</i>
    </separator>
   </separator>
   <separator name="electronic dipolcorrection" >
    <i type="logical" name="LDIPOL"> F  </i>
    <i type="logical" name="LMONO"> F  </i>
    <i type="int" name="IDIPOL">     0</i>
    <i name="EPSILON">      1.00000000</i>
    <v name="DIPOL">   -100.00000000   -100.00000000   -100.00000000</v>
    <i name="EFIELD">      0.00000000</i>
   </separator>
  </separator>
  <separator name="grids" >
   <i type="int" name="NGX">    16</i>
   <i type="int" name="NGY">    16</i>
   <i type="int" name="NGZ">    16</i>
   <i type="int" name="NGXF">    32</i>
   <i type="int" name="NGYF">    32</i>
   <i type="int" name="NGZF">    32</i>
   <i type="logical" name="ADDGRID"> F  </i>
  </separator>
  <separator name="ionic" >
   <i type="int" name="NSW">     0</i>
   <i type="int" name="IBRION">    -1</i>
   <i type="int" name="ISIF">     2</i>
   <i name="PSTRESS">      0.00000000</i>
   <i name="EDIFFG">      0.00100000</i>
   <i type="int" name="NFREE">     0</i>
   <i name="POTIM">      0.50000000</i>
   <i name="SMASS">     -3.00000000</i>
   <i name="SCALEE">      1.00000000</i>
  </separator>
  <separator name="ionic md" >
   <i name="TEBEG">      0.00010000</i>
   <i name="TEEND">      0.00010000</i>
   <i type="int" name="NBLOCK">     1</i>
   <i type="int" name="KBLOCK">     1</i>
   <i type="int" name="NPACO">   256</i>
   <i name="APACO">     16.00000000</i>
  </separator>
  <separator name="symmetry" >
   <i type="int" name="ISYM">     1</i>
   <i name="SYMPREC">      0.00001000</i>
  </separator>
  <separator name="dos" >
   <i type="logical" name="LORBIT"> F  </i>
   <v name="RWIGS">     -1.00000000</v>
   <i type="int" name="NEDOS">   301</i>
   <i name="EMIN">     10.00000000</i>
   <i name="EMAX">    -10.00000000</i>
   <i name="EFERMI">      0.00000000</i>
  </separator>
  <separator name="writing" >
   <i type="int" name="NWRITE">     2</i>
   <i type="logical" name="LWAVE"> F  </i>
   <i type="logical" name="LCHARG"> F  </i>
   <i type="logical" name="LPARD"> F  </i>
   <i type="logical" name="LVTOT"> F  </i>
   <i type="logical" name="LVHAR"> F  </i>
   <i type="logical" name="LELF"> F  </i>
   <i type="logical" name="LOPTICS"> F  </i>
   <v name="STM">      0.00000000      0.00000000      0.00000000      0.00000000      0.00000000      0.00000000      0.00000000</v>
  </separator>
  <separator name="performance" >
   <i type="int" name="NPAR">    20</i>
   <i type="int" name="NSIM">     4</i>
   <i type="int" name="NBLK">    -1</i>
   <i type="logical" name="LPLANE"> T  </i>
   <i type="logical" name="LSCALAPACK"> T  </i>
   <i type="logical" name="LSCAAWARE"> F  </i>
   <i type="logical" name="LSCALU"> F  </i>
   <i type="logical" name="LASYNC"> F  </i>
   <i type="logical" name="LORBITALREAL"> F  </i>
  </separator>
  <separator name="miscellaneous" >
   <i type="int" name="IDIOT">     3</i>
   <i type="logical" name="LMUSIC"> F  </i>
   <v name="POMASS">     69.72300000</v>
   <v name="DARWINR">      0.00000000</v>
   <v name="DARWINV">      1.00000000</v>
   <i type="logical" name="LCORR"> T  </i>
  </separator>
  <i type="logical" name="GGA_COMPAT"> T  </i>
  <i type="logical" name="LBERRY"> F  </i>
  <i type="int" name="ICORELEVEL">     0</i>
  <i type="logical" name="LDAU"> F  </i>
  <i type="int" name="I_CONSTRAINED_M">     0</i>
  <separator name="electronic exchange-correlation" >
   <i type="string" name="GGA">--</i>
   <i type="int" name="VOSKOWN">     0</i>
   <i type="logical" name="LHFCALC"> F  </i>
   <i type="string" name="PRECFOCK"></i>
   <i type="logical" name="LSYMGRAD"> F  </i>
   <i type="logical" name="LHFONE"> F  </i>
   <i type="logical" name="LRHFCALC"> F  </i>
   <i type="logical" name="LTHOMAS"> F  </i>
   <i type="logical" name="LMODELHF"> F  </i>
   <i name="ENCUT4O">     -1.00000000</i>
   <i type="int" name="EXXOEP">     0</i>
   <i type="int" name="FOURORBIT">     0</i>
   <i name="AEXX">      0.00000000</i>
   <i name="HFALPHA">      0.00000000</i>
   <i name="MCALPHA">      0.00000000</i>
   <i name="ALDAX">      1.00000000</i>
   <i name="AGGAX">      1.00000000</i>
   <i name="ALDAC">      1.00000000</i>
   <i name="AGGAC">      1.00000000</i>
   <i type="int" name="NKREDX">     1</i>
   <i type="int" name="NKREDY">     1</i>
   <i type="int" name="NKREDZ">     1</i>
   <i type="logical" name="SHIFTRED"> F  </i>
   <i type="logical" name="ODDONLY"> F  </i>
   <i type="logical" name="EVENONLY"> F  </i>
   <i type="int" name="LMAXFOCK">     0</i>
   <i type="int" name="NMAXFOCKAE">     0</i>
   <i type="logical" name="LFOCKAEDFT"> F  </i>
   <i name="HFSCREEN">      0.00000000</i>
   <i name="HFSCREENC">      0.00000000</i>
   <i type="int" name="NBANDSGWLOW">     0</i>
  </separator>
  <separator name="vdW DFT" >
   <i type="logical" name="LUSE_VDW"> F  </i>
   <i name="Zab_VDW">     -0.84910000</i>
   <i name="PARAM1">      0.12340000</i>
   <i name="PARAM2">      1.00000000</i>
   <i name="PARAM3">      0.00000000</i>
  </separator>
  <separator name="model GW" >
   <i type="int" name="MODEL_GW">     0</i>
   <i name="MODEL_EPS0">     14.35410601</i>
   <i name="MODEL_ALPHA">      1.00000000</i>
  </separator>
  <separator name="linear response parameters" >
   <i type="logical" name="LEPSILON"> F  </i>
   <i type="logical" name="LRPA"> F  </i>
   <i type="logical" name="LNABLA"> F  </i>
   <i type="logical" name="LVEL"> F  </i>
   <i type="int" name="KINTER">     0</i>
   <i name="CSHIFT">      0.10000000</i>
   <i name="OMEGAMAX">     -1.00000000</i>
   <i name="DEG_THRESHOLD">      0.00200000</i>
  </separator>
  <separator name="orbital magnetization" >
   <i type="logical" name="NUCIND"> F  </i>
   <v name="MAGPOS">      0.00000000      0.00000000      0.00000000</v>
   <i type="logical" name="LNICSALL"> T  </i>
   <i type="logical" name="ORBITALMAG"> F  </i>
   <i type="logical" name="LMAGBLOCH"> F  </i>
   <i type="logical" name="LCHIMAG"> F  </i>
   <i type="logical" name="LGAUGE"> T  </i>
   <i type="int" name="MAGATOM">     0</i>
   <v name="MAGDIPOL">      0.00000000      0.00000000      0.00000000</v>
   <v name="AVECCONST">      0.00000000      0.00000000      0.00000000</v>
  </separator>
  <separator name="response functions" >
   <i type="logical" name="LADDER"> F  </i>
   <i type="logical" name="LFXC"> F  </i>
   <i type="logical" name="LHARTREE"> T  </i>
   <i type="int" name="IBSE">     0</i>
   <i type="logical" name="LTCTE"> F  </i>
   <i type="logical" name="LTETE"> F  </i>
   <i type="logical" name="LTRIPLET"> F  </i>
   <i type="logical" name="LFXCEPS"> F  </i>
   <i type="logical" name="L2ORDER"> F  </i>
   <i type="logical" name="LUSEW"> F  </i>
   <i name="ENCUTGW">     -2.00000000</i>
   <i name="ENCUTGWSOFT">     -2.00000000</i>
   <i name="ENCUTLF">     -1.00000000</i>
   <i type="int" name="LMAXMP2">    -1</i>
   <i name="SCISSOR">      0.00000000</i>
   <i type="int" name="NOMEGA">     0</i>
   <i type="int" name="NOMEGAR">     0</i>
   <i type="int" name="NBANDSGW">    -1</i>
   <i type="int" name="NBANDSO">    -1</i>
   <i type="int" name="NBANDSV">    -1</i>
   <i type="int" name="NELM">     1</i>
   <i type="int" name="DIM">     3</i>
   <i type="int" name="ANTIRES">     0</i>
   <i name="OMEGAMAX">    -30.00000000</i>
   <i name="OMEGATL">   -200.00000000</i>
   <i type="int" name="OMEGAGRID">     0</i>
   <i name="CSHIFT">     -0.10000000</i>
   <i type="logical" name="SELFENERGY"> F  </i>
   <i type="logical" name="LSPECTRAL"> F  </i>
   <i type="logical" name="ODDONLYGW"> F  </i>
   <i type="logical" name="EVENONLYGW"> F  </i>
   <i type="int" name="NKREDLFX">     1</i>
   <i type="int" name="NKREDLFY">     1</i>
   <i type="int" name="NKREDLFZ">     1</i>
   <i type="int" name="MAXMEM">  1800</i>
   <i type="int" name="TELESCOPE">     0</i>
  </separator>
 </parameters>
 <atominfo>
  <atoms>       8 </atoms>
  <types>       1 </types>
  <array name="atoms" >
   <dimension dim="1">ion</dimension>
   <field type="string">element</field>
   <field type="int">atomtype</field>
   <set>
    <rc><c>Ga</c><c>   1</c></rc>
    <rc><c>Ga</c><c>   1</c></rc>
    <rc><c>Ga</c><c>   1</c></rc>
    <rc><c>Ga</c><c>   1</c></rc>
    <rc><c>Ga</c><c>   1</c></rc>
    <rc><c>Ga</c><c>   1</c></rc>
    <rc><c>Ga</c><c>   1</c></rc>
    <rc><c>Ga</c><c>   1</c></rc>
   </set>
  </array>
  <array name="atomtypes" >
   <dimension dim="1">type</dimension>
   <field type="int">atomspertype</field>
   <field type="string">element</field>
   <field>mass</field>
   <field>valence</field>
   <field type="string">pseudopotential</field>
   <set>
    <rc><c>   8</c><c>Ga</c><c>     69.72300000</c><c>      3.00000000</c><c> PAW_PBE Ga 08Apr2002                   </c></rc>
   </set>
  </array>
 </atominfo>
 <structure name="initialpos" >
  <crystal>
   <varray name="basis" >
    <v>       5.76286300       0.00000000       0.00000000 </v>
    <v>       0.00000000       5.76286300       0.00000000 </v>
    <v>       0.00000000       0.00000000       5.76286300 </v>
   </varray>
   <i name="volume">    191.38808007 </i>
   <varray name="rec_basis" >
    <v>       0.17352486       0.00000000       0.00000000 </v>
    <v>       0.00000000       0.17352486       0.00000000 </v>
    <v>       0.00000000       0.00000000       0.17352486 </v>
   </varray>
  </crystal>
  <varray name="positions" >
   <v>       0.75000000       0.75000000       0.75000000 </v>
   <v>       0.50000000       0.00000000       0.00000000 </v>
   <v>       0.75000000       0.25000000       0.25000000 </v>
   <v>       0.50000000       0.50000000       0.50000000 </v>
   <v>       0.25000000       0.75000000       0.25000000 </v>
   <v>       0.00000000       0.00000000       0.50000000 </v>
   <v>       0.25000000       0.25000000       0.75000000 </v>
   <v>       0.00000000       0.50000000       0.00000000 </v>
  </varray>
 </structure>
 <calculation>
  <scstep>
   <time name="dav">    0.68    0.69</time>
   <time name="total">    0.70    0.72</time>
   <energy>
    <i name="alphaZ">     59.64982895 </i>
    <i name="ewald">   -484.56382983 </i>
    <i name="hartreedc">    -22.55400900 </i>
    <i name="XCdc">   -155.28694958 </i>
    <i name="pawpsdc">    330.10196642 </i>
    <i name="pawaedc">   -140.54714835 </i>
    <i name="eentropy">     -0.05488365 </i>
    <i name="bandstr">    -46.51176523 </i>
    <i name="atom">    470.93120954 </i>
    <i name="e_fr_energy">     11.16441926 </i>
    <i name="e_wo_entrp">     11.21930292 </i>
    <i name="e_0_energy">     11.19186109 </i>
   </energy>
  </scstep>
  <scstep>
   <time name="dav">    1.31    1.31</time>
   <time name="total">    1.31    1.32</time>
   <energy>
    <i name="e_fr_energy">    -20.60412964 </i>
    <i name="e_wo_entrp">    -20.50375471 </i>
    <i name="e_0_energy">    -20.55394217 </i>
   </energy>
  </scstep>
  <scstep>
   <time name="dav">    0.76    0.76</time>
   <time name="total">    0.76    0.76</time>
   <energy>
    <i name="e_fr_energy">    -21.02170006 </i>
    <i name="e_wo_entrp">    -20.92033121 </i>
    <i name="e_0_energy">    -20.97101564 </i>
   </energy>
  </scstep>
  <scstep>
   <time name="dav">    1.76    1.76</time>
   <time name="total">    1.76    1.76</time>
   <energy>
    <i name="e_fr_energy">    -21.02263151 </i>
    <i name="e_wo_entrp">    -20.92125951 </i>
    <i name="e_0_energy">    -20.97194551 </i>
   </energy>
  </scstep>
  <scstep>
   <time name="dav">    0.74    0.74</time>
   <time name="total">    0.77    0.77</time>
   <energy>
    <i name="e_fr_energy">    -21.02263156 </i>
    <i name="e_wo_entrp">    -20.92125956 </i>
    <i name="e_0_energy">    -20.97194556 </i>
   </energy>
  </scstep>
  <scstep>
   <time name="diag">    0.21    0.24</time>
   <time name="diis">    0.20    0.20</time>
   <time name="orth">    0.02    0.02</time>
   <time name="total">    0.47    0.49</time>
   <energy>
    <i name="e_fr_energy">    -20.93662772 </i>
    <i name="e_wo_entrp">    -20.83528424 </i>
    <i name="e_0_energy">    -20.88595598 </i>
   </energy>
  </scstep>
  <scstep>
   <time name="diag">    0.19    0.19</time>
   <time name="diis">    0.22    0.22</time>
   <time name="orth">    0.02    0.02</time>
   <time name="total">    0.46    0.46</time>
   <energy>
    <i name="e_fr_energy">    -20.89007029 </i>
    <i name="e_wo_entrp">    -20.78873240 </i>
    <i name="e_0_energy">    -20.83940134 </i>
   </energy>
  </scstep>
  <scstep>
   <time name="diag">    0.19    0.19</time>
   <time name="diis">    0.27    0.27</time>
   <time name="orth">    0.02    0.02</time>
   <time name="total">    0.51    0.51</time>
   <energy>
    <i name="e_fr_energy">    -20.89037518 </i>
    <i name="e_wo_entrp">    -20.78901703 </i>
    <i name="e_0_energy">    -20.83969611 </i>
   </energy>
  </scstep>
  <scstep>
   <time name="diag">    0.20    0.20</time>
   <time name="diis">    0.57    0.57</time>
   <time name="orth">    0.02    0.02</time>
   <time name="total">    0.80    0.80</time>
   <energy>
    <i name="alphaZ">     59.64982895 </i>
    <i name="ewald">   -484.56382983 </i>
    <i name="hartreedc">    -24.23787098 </i>
    <i name="XCdc">   -153.70171221 </i>
    <i name="pawpsdc">    423.42453025 </i>
    <i name="pawaedc">   -235.29829591 </i>
    <i name="eentropy">     -0.10136213 </i>
    <i name="bandstr">    -76.99291252 </i>
    <i name="atom">    470.93120954 </i>
    <i name="e_fr_energy">    -20.89041485 </i>
    <i name="e_wo_entrp">    -20.78905272 </i>
    <i name="e_0_energy">    -20.83973378 </i>
   </energy>
  </scstep>
  <structure>
   <crystal>
    <varray name="basis" >
     <v>       5.76286300       0.00000000       0.00000000 </v>
     <v>       0.00000000       5.76286300       0.00000000 </v>
     <v>       0.00000000       0.00000000       5.76286300 </v>
    </varray>
    <i name="volume">    191.38808007 </i>
    <varray name="rec_basis" >
     <v>       0.17352486       0.00000000       0.00000000 </v>
     <v>       0.00000000       0.17352486       0.00000000 </v>
     <v>       0.00000000       0.00000000       0.17352486 </v>
    </varray>
   </crystal>
   <varray name="positions" >
    <v>       0.75000000       0.75000000       0.75000000 </v>
    <v>       0.50000000       0.00000000       0.00000000 </v>
    <v>       0.75000000       0.25000000       0.25000000 </v>
    <v>       0.50000000       0.50000000       0.50000000 </v>
    <v>       0.25000000       0.75000000       0.25000000 </v>
    <v>       0.00000000       0.00000000       0.50000000 </v>
    <v>       0.25000000       0.25000000       0.75000000 </v>
    <v>       0.00000000       0.50000000       0.00000000 </v>
   </varray>
  </structure>
  <varray name="forces" >
   <v>       0.00000000       0.00000000      -0.00000000 </v>
   <v>      -0.00000000      -0.00000000       0.00000000 </v>
   <v>      -0.00000000      -0.00000000       0.00000000 </v>
   <v>       0.00000000       0.00000000      -0.00000000 </v>
   <v>       0.00000000      -0.00000000      -0.00000000 </v>
   <v>      -0.00000000      -0.00000000       0.00000000 </v>
   <v>       0.00000000      -0.00000000       0.00000000 </v>
   <v>       0.00000000       0.00000000      -0.00000000 </v>
  </varray>
  <varray name="stress" >
   <v>      26.48288800      -0.00000000      -0.00000000 </v>
   <v>       0.00000000      26.48288800       0.00000000 </v>
   <v>      -0.00000000      -0.00000000      26.48288800 </v>
  </varray>
  <energy>
   <i name="e_fr_energy">    -20.89041485 </i>
   <i name="e_wo_entrp">    -20.83973378 </i>
   <i name="e_0_energy">     -0.10136213 </i>
  </energy>
  <time name="totalsc">    8.39    8.46</time>
  <eigenvalues>
   <array>
    <dimension dim="1">band</dimension>
    <dimension dim="2">kpoint</dimension>
    <dimension dim="3">spin</dimension>
    <field>eigene</field>
    <field>occ</field>
    <set>
     <set comment="spin 1">
      <set comment="kpoint 1">
       <r>   -8.8460    1.0000 </r>
       <r>   -5.0481    1.0000 </r>
       <r>   -5.0481    1.0000 </r>
       <r>   -5.0481    1.0000 </r>
       <r>   -4.6251    1.0000 </r>
       <r>   -4.6251    1.0000 </r>
       <r>   -4.6251    1.0000 </r>
       <r>    0.1843    1.0000 </r>
       <r>    0.1843    1.0000 </r>
       <r>    0.1843    1.0000 </r>
       <r>    0.2400    0.9999 </r>
       <r>    0.2400    0.9999 </r>
       <r>    0.2400    0.9999 </r>
       <r>    3.4521    0.0000 </r>
       <r>    3.5846    0.0000 </r>
       <r>    3.5846    0.0000 </r>
       <r>    3.5846    0.0000 </r>
       <r>    3.6518    0.0000 </r>
       <r>    3.6519    0.0000 </r>
       <r>    3.7025    0.0000 </r>
      </set>
      <set comment="kpoint 2">
       <r>   -8.8203    1.0000 </r>
       <r>   -5.4528    1.0000 </r>
       <r>   -5.0381    1.0000 </r>
       <r>   -5.0381    1.0000 </r>
       <r>   -4.6179    1.0000 </r>
       <r>   -4.6179    1.0000 </r>
       <r>   -4.1855    1.0000 </r>
       <r>    0.0545    1.0000 </r>
       <r>    0.0545    1.0000 </r>
       <r>    0.2085    0.9999 </r>
       <r>    0.2085    0.9999 </r>
       <r>    0.2134    0.9999 </r>
       <r>    0.2681    0.9997 </r>
       <r>    3.1039    0.0000 </r>
       <r>    3.4918    0.0000 </r>
       <r>    3.5268    0.0000 </r>
       <r>    3.5574    0.0000 </r>
       <r>    3.6894    0.0000 </r>
       <r>    3.6894    0.0000 </r>
       <r>    3.8271    0.0000 </r>
      </set>
      <set comment="kpoint 3">
       <r>   -8.7689    1.0000 </r>
       <r>   -5.8385    1.0000 </r>
       <r>   -5.0186    1.0000 </r>
       <r>   -5.0186    1.0000 </r>
       <r>   -4.6044    1.0000 </r>
       <r>   -4.6044    1.0000 </r>
       <r>   -3.7308    1.0000 </r>
       <r>   -0.1208    1.0000 </r>
       <r>   -0.1208    1.0000 </r>
       <r>    0.1040    1.0000 </r>
       <r>    0.1040    1.0000 </r>
       <r>    0.2703    0.9997 </r>
       <r>    0.3251    0.9987 </r>
       <r>    2.6696    0.0000 </r>
       <r>    3.2337    0.0000 </r>
       <r>    3.3024    0.0000 </r>
       <r>    3.4960    0.0000 </r>
       <r>    3.9277    0.0000 </r>
       <r>    3.9277    0.0000 </r>
       <r>    3.9911    0.0000 </r>
      </set>
      <set comment="kpoint 4">
       <r>   -8.6919    1.0000 </r>
       <r>   -6.2040    1.0000 </r>
       <r>   -4.9919    1.0000 </r>
       <r>   -4.9919    1.0000 </r>
       <r>   -4.5861    1.0000 </r>
       <r>   -4.5861    1.0000 </r>
       <r>   -3.2630    1.0000 </r>
       <r>   -0.3132    1.0000 </r>
       <r>   -0.3132    1.0000 </r>
       <r>   -0.0460    1.0000 </r>
       <r>   -0.0460    1.0000 </r>
       <r>    0.3563    0.9974 </r>
       <r>    0.4085    0.9925 </r>
       <r>    2.2007    0.0000 </r>
       <r>    2.9327    0.0000 </r>
       <r>    2.9852    0.0000 </r>
       <r>    3.4956    0.0000 </r>
       <r>    4.1909    0.0000 </r>
       <r>    4.2795    0.0000 </r>
       <r>    4.2796    0.0000 </r>
      </set>
      <set comment="kpoint 5">
       <r>   -8.5893    1.0000 </r>
       <r>   -6.5482    1.0000 </r>
       <r>   -4.9603    1.0000 </r>
       <r>   -4.9603    1.0000 </r>
       <r>   -4.5653    1.0000 </r>
       <r>   -4.5653    1.0000 </r>
       <r>   -2.7842    1.0000 </r>
       <r>   -0.5001    1.0000 </r>
       <r>   -0.5001    1.0000 </r>
       <r>   -0.2118    1.0000 </r>
       <r>   -0.2118    1.0000 </r>
       <r>    0.4701    0.9770 </r>
       <r>    0.5197    0.9499 </r>
       <r>    1.7152    0.0000 </r>
       <r>    2.6193    0.0000 </r>
       <r>    2.6528    0.0000 </r>
       <r>    3.5255    0.0000 </r>
       <r>    4.4262    0.0000 </r>
       <r>    4.7186    0.0000 </r>
       <r>    4.7187    0.0000 </r>
      </set>
      <set comment="kpoint 6">
       <r>   -8.4612    1.0000 </r>
       <r>   -6.8703    1.0000 </r>
       <r>   -4.9271    1.0000 </r>
       <r>   -4.9271    1.0000 </r>
       <r>   -4.5445    1.0000 </r>
       <r>   -4.5445    1.0000 </r>
       <r>   -2.2960    1.0000 </r>
       <r>   -0.6648    1.0000 </r>
       <r>   -0.6648    1.0000 </r>
       <r>   -0.3697    1.0000 </r>
       <r>   -0.3697    1.0000 </r>
       <r>    0.6117    0.8397 </r>
       <r>    0.6580    0.7472 </r>
       <r>    1.2211    0.0005 </r>
       <r>    2.3092    0.0000 </r>
       <r>    2.3253    0.0000 </r>
       <r>    3.5851    0.0000 </r>
       <r>    4.6964    0.0000 </r>
       <r>    4.7425    0.0000 </r>
       <r>    5.2242    0.0000 </r>
      </set>
      <set comment="kpoint 7">
       <r>   -8.3080    1.0000 </r>
       <r>   -7.1700    1.0000 </r>
       <r>   -4.8966    1.0000 </r>
       <r>   -4.8966    1.0000 </r>
       <r>   -4.5262    1.0000 </r>
       <r>   -4.5262    1.0000 </r>
       <r>   -1.8005    1.0000 </r>
       <r>   -0.7962    1.0000 </r>
       <r>   -0.7962    1.0000 </r>
       <r>   -0.5029    1.0000 </r>
       <r>   -0.5029    1.0000 </r>
       <r>    0.7208    0.5879 </r>
       <r>    0.7809    0.4196 </r>
       <r>    0.8228    0.3088 </r>
       <r>    2.0109    0.0000 </r>
       <r>    2.0121    0.0000 </r>
       <r>    3.6734    0.0000 </r>
       <r>    4.5104    0.0000 </r>
       <r>    4.9998    0.0000 </r>
       <r>    5.7820    0.0000 </r>
      </set>
      <set comment="kpoint 8">
       <r>   -8.1295    1.0000 </r>
       <r>   -7.4462    1.0000 </r>
       <r>   -4.8730    1.0000 </r>
       <r>   -4.8730    1.0000 </r>
       <r>   -4.5128    1.0000 </r>
       <r>   -4.5128    1.0000 </r>
       <r>   -1.2998    1.0000 </r>
       <r>   -0.8881    1.0000 </r>
       <r>   -0.8881    1.0000 </r>
       <r>   -0.5986    1.0000 </r>
       <r>   -0.5986    1.0000 </r>
       <r>    0.2172    0.9999 </r>
       <r>    0.9769    0.0560 </r>
       <r>    1.0135    0.0323 </r>
       <r>    1.7185    0.0000 </r>
       <r>    1.7294    0.0000 </r>
       <r>    3.7899    0.0000 </r>
       <r>    4.2963    0.0000 </r>
       <r>    5.3326    0.0000 </r>
       <r>    6.3808    0.0000 </r>
      </set>
      <set comment="kpoint 9">
       <r>   -7.9262    1.0000 </r>
       <r>   -7.6983    1.0000 </r>
       <r>   -4.8601    1.0000 </r>
       <r>   -4.8601    1.0000 </r>
       <r>   -4.5059    1.0000 </r>
       <r>   -4.5059    1.0000 </r>
       <r>   -0.9348    1.0000 </r>
       <r>   -0.9348    1.0000 </r>
       <r>   -0.7935    1.0000 </r>
       <r>   -0.6494    1.0000 </r>
       <r>   -0.6494    1.0000 </r>
       <r>   -0.2880    1.0000 </r>
       <r>    1.1994    0.0008 </r>
       <r>    1.2292    0.0004 </r>
       <r>    1.4468    0.0000 </r>
       <r>    1.4686    0.0000 </r>
       <r>    3.9342    0.0000 </r>
       <r>    4.1033    0.0000 </r>
       <r>    5.6877    0.0000 </r>
       <r>    6.0451    0.0000 </r>
      </set>
      <set comment="kpoint 10">
       <r>   -8.7946    1.0000 </r>
       <r>   -5.4393    1.0000 </r>
       <r>   -5.4393    1.0000 </r>
       <r>   -5.0326    1.0000 </r>
       <r>   -4.6077    1.0000 </r>
       <r>   -4.1836    1.0000 </r>
       <r>   -4.1836    1.0000 </r>
       <r>   -0.1445    1.0000 </r>
       <r>    0.0838    1.0000 </r>
       <r>    0.0838    1.0000 </r>
       <r>    0.2386    0.9999 </r>
       <r>    0.2386    0.9999 </r>
       <r>    0.2885    0.9995 </r>
       <r>    2.7531    0.0000 </r>
       <r>    3.3521    0.0000 </r>
       <r>    3.6171    0.0000 </r>
       <r>    3.6533    0.0000 </r>
       <r>    3.6602    0.0000 </r>
       <r>    3.6602    0.0000 </r>
       <r>    3.9932    0.0000 </r>
      </set>
      <set comment="kpoint 11">
       <r>   -8.7433    1.0000 </r>
       <r>   -5.8225    1.0000 </r>
       <r>   -5.4130    1.0000 </r>
       <r>   -5.0230    1.0000 </r>
       <r>   -4.5876    1.0000 </r>
       <r>   -4.1808    1.0000 </r>
       <r>   -3.7353    1.0000 </r>
       <r>   -0.3601    1.0000 </r>
       <r>   -0.0936    1.0000 </r>
       <r>    0.1398    1.0000 </r>
       <r>    0.1420    1.0000 </r>
       <r>    0.2817    0.9996 </r>
       <r>    0.2984    0.9993 </r>
       <r>    2.3377    0.0000 </r>
       <r>    3.0958    0.0000 </r>
       <r>    3.4817    0.0000 </r>
       <r>    3.6435    0.0000 </r>
       <r>    3.7679    0.0000 </r>
       <r>    3.9188    0.0000 </r>
       <r>    4.1417    0.0000 </r>
      </set>
      <set comment="kpoint 12">
       <r>   -8.6664    1.0000 </r>
       <r>   -6.1859    1.0000 </r>
       <r>   -5.3751    1.0000 </r>
       <r>   -5.0120    1.0000 </r>
       <r>   -4.5581    1.0000 </r>
       <r>   -4.1791    1.0000 </r>
       <r>   -3.2755    1.0000 </r>
       <r>   -0.5687    1.0000 </r>
       <r>   -0.2916    1.0000 </r>
       <r>    0.0014    1.0000 </r>
       <r>    0.2003    1.0000 </r>
       <r>    0.2289    0.9999 </r>
       <r>    0.3874    0.9951 </r>
       <r>    1.9005    0.0000 </r>
       <r>    2.7946    0.0000 </r>
       <r>    3.1996    0.0000 </r>
       <r>    3.6523    0.0000 </r>
       <r>    4.0253    0.0000 </r>
       <r>    4.2825    0.0000 </r>
       <r>    4.3304    0.0000 </r>
      </set>
      <set comment="kpoint 13">
       <r>   -8.5640    1.0000 </r>
       <r>   -6.5285    1.0000 </r>
       <r>   -5.3277    1.0000 </r>
       <r>   -5.0032    1.0000 </r>
       <r>   -4.5198    1.0000 </r>
       <r>   -4.1809    1.0000 </r>
       <r>   -2.8060    1.0000 </r>
       <r>   -0.7536    1.0000 </r>
       <r>   -0.4888    1.0000 </r>
       <r>   -0.1460    1.0000 </r>
       <r>    0.0726    1.0000 </r>
       <r>    0.3446    0.9980 </r>
       <r>    0.5066    0.9588 </r>
       <r>    1.4525    0.0000 </r>
       <r>    2.4799    0.0000 </r>
       <r>    2.8618    0.0000 </r>
       <r>    3.6894    0.0000 </r>
       <r>    4.3983    0.0000 </r>
       <r>    4.5561    0.0000 </r>
       <r>    4.7285    0.0000 </r>
      </set>
      <set comment="kpoint 14">
       <r>   -8.4362    1.0000 </r>
       <r>   -6.8495    1.0000 </r>
       <r>   -5.2735    1.0000 </r>
       <r>   -5.0007    1.0000 </r>
       <r>   -4.4743    1.0000 </r>
       <r>   -4.1893    1.0000 </r>
       <r>   -2.3300    1.0000 </r>
       <r>   -0.9032    1.0000 </r>
       <r>   -0.6713    1.0000 </r>
       <r>   -0.2780    1.0000 </r>
       <r>   -0.0717    1.0000 </r>
       <r>    0.4874    0.9694 </r>
       <r>    0.6556    0.7526 </r>
       <r>    0.9973    0.0415 </r>
       <r>    2.1679    0.0000 </r>
       <r>    2.5126    0.0000 </r>
       <r>    3.7548    0.0000 </r>
       <r>    4.8171    0.0000 </r>
       <r>    4.8590    0.0000 </r>
       <r>    4.9334    0.0000 </r>
      </set>
      <set comment="kpoint 15">
       <r>   -8.2831    1.0000 </r>
       <r>   -7.1479    1.0000 </r>
       <r>   -5.2156    1.0000 </r>
       <r>   -5.0082    1.0000 </r>
       <r>   -4.4236    1.0000 </r>
       <r>   -4.2065    1.0000 </r>
       <r>   -1.8498    1.0000 </r>
       <r>   -1.0099    1.0000 </r>
       <r>   -0.8281    1.0000 </r>
       <r>   -0.3775    1.0000 </r>
       <r>   -0.2098    1.0000 </r>
       <r>    0.5355    0.9372 </r>
       <r>    0.6573    0.7488 </r>
       <r>    0.8347    0.2797 </r>
       <r>    1.8672    0.0000 </r>
       <r>    2.1720    0.0000 </r>
       <r>    3.8484    0.0000 </r>
       <r>    4.7012    0.0000 </r>
       <r>    5.1113    0.0000 </r>
       <r>    5.3860    0.0000 </r>
      </set>
      <set comment="kpoint 16">
       <r>   -8.1051    1.0000 </r>
       <r>   -7.4234    1.0000 </r>
       <r>   -5.1582    1.0000 </r>
       <r>   -5.0281    1.0000 </r>
       <r>   -4.3705    1.0000 </r>
       <r>   -4.2343    1.0000 </r>
       <r>   -1.3673    1.0000 </r>
       <r>   -1.0683    1.0000 </r>
       <r>   -0.9524    1.0000 </r>
       <r>   -0.4343    1.0000 </r>
       <r>   -0.3250    1.0000 </r>
       <r>    0.0674    1.0000 </r>
       <r>    0.8531    0.2378 </r>
       <r>    1.0445    0.0194 </r>
       <r>    1.5827    0.0000 </r>
       <r>    1.8505    0.0000 </r>
       <r>    3.9696    0.0000 </r>
       <r>    4.4851    0.0000 </r>
       <r>    5.4345    0.0000 </r>
       <r>    5.9649    0.0000 </r>
      </set>
      <set comment="kpoint 17">
       <r>   -7.9022    1.0000 </r>
       <r>   -7.6748    1.0000 </r>
       <r>   -5.1054    1.0000 </r>
       <r>   -5.0610    1.0000 </r>
       <r>   -4.3188    1.0000 </r>
       <r>   -4.2724    1.0000 </r>
       <r>   -1.0771    1.0000 </r>
       <r>   -1.0372    1.0000 </r>
       <r>   -0.8850    1.0000 </r>
       <r>   -0.4439    1.0000 </r>
       <r>   -0.4063    1.0000 </r>
       <r>   -0.4058    1.0000 </r>
       <r>    1.0737    0.0115 </r>
       <r>    1.2845    0.0001 </r>
       <r>    1.3173    0.0000 </r>
       <r>    1.5534    0.0000 </r>
       <r>    4.1172    0.0000 </r>
       <r>    4.2896    0.0000 </r>
       <r>    5.7770    0.0000 </r>
       <r>    6.1165    0.0000 </r>
      </set>
      <set comment="kpoint 18">
       <r>   -8.6922    1.0000 </r>
       <r>   -5.7910    1.0000 </r>
       <r>   -5.7910    1.0000 </r>
       <r>   -5.0325    1.0000 </r>
       <r>   -4.5543    1.0000 </r>
       <r>   -3.7452    1.0000 </r>
       <r>   -3.7452    1.0000 </r>
       <r>   -0.5924    1.0000 </r>
       <r>   -0.0391    1.0000 </r>
       <r>   -0.0391    1.0000 </r>
       <r>    0.2111    0.9999 </r>
       <r>    0.2111    0.9999 </r>
       <r>    0.3859    0.9952 </r>
       <r>    1.9389    0.0000 </r>
       <r>    2.8423    0.0000 </r>
       <r>    3.5435    0.0000 </r>
       <r>    3.7486    0.0000 </r>
       <r>    3.9194    0.0000 </r>
       <r>    3.9194    0.0000 </r>
       <r>    4.4217    0.0000 </r>
      </set>
      <set comment="kpoint 19">
       <r>   -8.6155    1.0000 </r>
       <r>   -6.1503    1.0000 </r>
       <r>   -5.7451    1.0000 </r>
       <r>   -5.0490    1.0000 </r>
       <r>   -4.5059    1.0000 </r>
       <r>   -3.7624    1.0000 </r>
       <r>   -3.3008    1.0000 </r>
       <r>   -0.8008    1.0000 </r>
       <r>   -0.2461    1.0000 </r>
       <r>    0.0432    1.0000 </r>
       <r>    0.0944    1.0000 </r>
       <r>    0.3184    0.9989 </r>
       <r>    0.4023    0.9933 </r>
       <r>    1.5234    0.0000 </r>
       <r>    2.5439    0.0000 </r>
       <r>    3.3938    0.0000 </r>
       <r>    3.8846    0.0000 </r>
       <r>    3.9412    0.0000 </r>
       <r>    4.2969    0.0000 </r>
       <r>    4.5934    0.0000 </r>
      </set>
      <set comment="kpoint 20">
       <r>   -8.5134    1.0000 </r>
       <r>   -6.4896    1.0000 </r>
       <r>   -5.6861    1.0000 </r>
       <r>   -5.0748    1.0000 </r>
       <r>   -4.4436    1.0000 </r>
       <r>   -3.7895    1.0000 </r>
       <r>   -2.8505    1.0000 </r>
       <r>   -0.9732    1.0000 </r>
       <r>   -0.4586    1.0000 </r>
       <r>   -0.0224    1.0000 </r>
       <r>    0.1528    1.0000 </r>
       <r>    0.3432    0.9981 </r>
       <r>    0.4615    0.9801 </r>
       <r>    1.1025    0.0066 </r>
       <r>    2.2326    0.0000 </r>
       <r>    3.1055    0.0000 </r>
       <r>    3.9884    0.0000 </r>
       <r>    4.1641    0.0000 </r>
       <r>    4.7523    0.0000 </r>
       <r>    4.8033    0.0000 </r>
      </set>
      <set comment="kpoint 21">
       <r>   -8.3860    1.0000 </r>
       <r>   -6.8080    1.0000 </r>
       <r>   -5.6164    1.0000 </r>
       <r>   -5.1120    1.0000 </r>
       <r>   -4.3697    1.0000 </r>
       <r>   -3.8289    1.0000 </r>
       <r>   -2.3975    1.0000 </r>
       <r>   -1.1019    1.0000 </r>
       <r>   -0.6617    1.0000 </r>
       <r>   -0.1177    1.0000 </r>
       <r>    0.2371    0.9999 </r>
       <r>    0.2890    0.9995 </r>
       <r>    0.6410    0.7842 </r>
       <r>    0.6794    0.6965 </r>
       <r>    1.9245    0.0000 </r>
       <r>    2.7593    0.0000 </r>
       <r>    4.0621    0.0000 </r>
       <r>    4.5589    0.0000 </r>
       <r>    5.0489    0.0000 </r>
       <r>    5.2619    0.0000 </r>
      </set>
      <set comment="kpoint 22">
       <r>   -8.2335    1.0000 </r>
       <r>   -7.1042    1.0000 </r>
       <r>   -5.5388    1.0000 </r>
       <r>   -5.1613    1.0000 </r>
       <r>   -4.2871    1.0000 </r>
       <r>   -3.8816    1.0000 </r>
       <r>   -1.9444    1.0000 </r>
       <r>   -1.1804    1.0000 </r>
       <r>   -0.8435    1.0000 </r>
       <r>   -0.1774    1.0000 </r>
       <r>    0.1130    1.0000 </r>
       <r>    0.2538    0.9998 </r>
       <r>    0.4515    0.9832 </r>
       <r>    0.8562    0.2309 </r>
       <r>    1.6284    0.0000 </r>
       <r>    2.3975    0.0000 </r>
       <r>    4.1628    0.0000 </r>
       <r>    5.0312    0.0000 </r>
       <r>    5.0408    0.0000 </r>
       <r>    5.3271    0.0000 </r>
      </set>
      <set comment="kpoint 23">
       <r>   -8.0562    1.0000 </r>
       <r>   -7.3779    1.0000 </r>
       <r>   -5.4566    1.0000 </r>
       <r>   -5.2228    1.0000 </r>
       <r>   -4.1993    1.0000 </r>
       <r>   -3.9476    1.0000 </r>
       <r>   -1.4945    1.0000 </r>
       <r>   -1.2075    1.0000 </r>
       <r>   -0.9959    1.0000 </r>
       <r>   -0.1945    1.0000 </r>
       <r>   -0.1752    1.0000 </r>
       <r>   -0.0055    1.0000 </r>
       <r>    0.6397    0.7869 </r>
       <r>    1.1064    0.0061 </r>
       <r>    1.3489    0.0000 </r>
       <r>    2.0414    0.0000 </r>
       <r>    4.2895    0.0000 </r>
       <r>    4.8153    0.0000 </r>
       <r>    5.5889    0.0000 </r>
       <r>    5.6320    0.0000 </r>
      </set>
      <set comment="kpoint 24">
       <r>   -7.8542    1.0000 </r>
       <r>   -7.6280    1.0000 </r>
       <r>   -5.3739    1.0000 </r>
       <r>   -5.2947    1.0000 </r>
       <r>   -4.1105    1.0000 </r>
       <r>   -4.0252    1.0000 </r>
       <r>   -1.1836    1.0000 </r>
       <r>   -1.1114    1.0000 </r>
       <r>   -1.0485    1.0000 </r>
       <r>   -0.6090    1.0000 </r>
       <r>   -0.1690    1.0000 </r>
       <r>   -0.1034    1.0000 </r>
       <r>    0.8526    0.2387 </r>
       <r>    1.0896    0.0085 </r>
       <r>    1.3897    0.0000 </r>
       <r>    1.7028    0.0000 </r>
       <r>    4.4416    0.0000 </r>
       <r>    4.6174    0.0000 </r>
       <r>    5.9507    0.0000 </r>
       <r>    6.1866    0.0000 </r>
      </set>
      <set comment="kpoint 25">
       <r>   -8.5392    1.0000 </r>
       <r>   -6.0979    1.0000 </r>
       <r>   -6.0979    1.0000 </r>
       <r>   -5.1005    1.0000 </r>
       <r>   -4.4344    1.0000 </r>
       <r>   -3.3410    1.0000 </r>
       <r>   -3.3410    1.0000 </r>
       <r>   -0.9969    1.0000 </r>
       <r>   -0.1749    1.0000 </r>
       <r>   -0.1749    1.0000 </r>
       <r>    0.2314    0.9999 </r>
       <r>    0.2314    0.9999 </r>
       <r>    0.5294    0.9424 </r>
       <r>    1.1281    0.0039 </r>
       <r>    2.2489    0.0000 </r>
       <r>    3.4244    0.0000 </r>
       <r>    3.8868    0.0000 </r>
       <r>    4.3305    0.0000 </r>
       <r>    4.3305    0.0000 </r>
       <r>    4.9567    0.0000 </r>
      </set>
      <set comment="kpoint 26">
       <r>   -8.4376    1.0000 </r>
       <r>   -6.4321    1.0000 </r>
       <r>   -6.0297    1.0000 </r>
       <r>   -5.1652    1.0000 </r>
       <r>   -4.3473    1.0000 </r>
       <r>   -3.3974    1.0000 </r>
       <r>   -2.9179    1.0000 </r>
       <r>   -1.1488    1.0000 </r>
       <r>   -0.4024    1.0000 </r>
       <r>   -0.0766    1.0000 </r>
       <r>    0.1521    1.0000 </r>
       <r>    0.4109    0.9921 </r>
       <r>    0.5682    0.9033 </r>
       <r>    0.7295    0.5637 </r>
       <r>    1.9412    0.0000 </r>
       <r>    3.2610    0.0000 </r>
       <r>    4.0445    0.0000 </r>
       <r>    4.3872    0.0000 </r>
       <r>    4.7948    0.0000 </r>
       <r>    5.1490    0.0000 </r>
      </set>
      <set comment="kpoint 27">
       <r>   -8.3109    1.0000 </r>
       <r>   -6.7463    1.0000 </r>
       <r>   -5.9479    1.0000 </r>
       <r>   -5.2427    1.0000 </r>
       <r>   -4.2476    1.0000 </r>
       <r>   -3.4711    1.0000 </r>
       <r>   -2.4964    1.0000 </r>
       <r>   -1.2503    1.0000 </r>
       <r>   -0.6236    1.0000 </r>
       <r>    0.0491    1.0000 </r>
       <r>    0.0976    1.0000 </r>
       <r>    0.3312    0.9985 </r>
       <r>    0.5300    0.9419 </r>
       <r>    0.6316    0.8030 </r>
       <r>    1.6371    0.0000 </r>
       <r>    2.9686    0.0000 </r>
       <r>    4.3452    0.0000 </r>
       <r>    4.4687    0.0000 </r>
       <r>    5.3169    0.0000 </r>
       <r>    5.3762    0.0000 </r>
      </set>
      <set comment="kpoint 28">
       <r>   -8.1593    1.0000 </r>
       <r>   -7.0391    1.0000 </r>
       <r>   -5.8547    1.0000 </r>
       <r>   -5.3320    1.0000 </r>
       <r>   -4.1376    1.0000 </r>
       <r>   -3.5611    1.0000 </r>
       <r>   -2.0789    1.0000 </r>
       <r>   -1.2989    1.0000 </r>
       <r>   -0.8262    1.0000 </r>
       <r>   -0.0658    1.0000 </r>
       <r>    0.0786    1.0000 </r>
       <r>    0.2020    0.9999 </r>
       <r>    0.4436    0.9854 </r>
       <r>    0.8922    0.1611 </r>
       <r>    1.3450    0.0000 </r>
       <r>    2.6158    0.0000 </r>
       <r>    4.5755    0.0000 </r>
       <r>    4.7608    0.0000 </r>
       <r>    5.4464    0.0000 </r>
       <r>    5.6344    0.0000 </r>
      </set>
      <set comment="kpoint 29">
       <r>   -7.9831    1.0000 </r>
       <r>   -7.3100    1.0000 </r>
       <r>   -5.7528    1.0000 </r>
       <r>   -5.4312    1.0000 </r>
       <r>   -4.0204    1.0000 </r>
       <r>   -3.6654    1.0000 </r>
       <r>   -1.6668    1.0000 </r>
       <r>   -1.2953    1.0000 </r>
       <r>   -1.0013    1.0000 </r>
       <r>   -0.4621    1.0000 </r>
       <r>    0.0973    1.0000 </r>
       <r>    0.3383    0.9983 </r>
       <r>    0.3817    0.9956 </r>
       <r>    1.0706    0.0122 </r>
       <r>    1.1892    0.0010 </r>
       <r>    2.2433    0.0000 </r>
       <r>    4.7068    0.0000 </r>
       <r>    5.2359    0.0000 </r>
       <r>    5.2631    0.0000 </r>
       <r>    5.9146    0.0000 </r>
      </set>
      <set comment="kpoint 30">
       <r>   -7.7825    1.0000 </r>
       <r>   -7.5581    1.0000 </r>
       <r>   -5.6455    1.0000 </r>
       <r>   -5.5370    1.0000 </r>
       <r>   -3.8997    1.0000 </r>
       <r>   -3.7798    1.0000 </r>
       <r>   -1.2605    1.0000 </r>
       <r>   -1.2417    1.0000 </r>
       <r>   -1.1419    1.0000 </r>
       <r>   -0.8598    1.0000 </r>
       <r>    0.1516    1.0000 </r>
       <r>    0.2356    0.9999 </r>
       <r>    0.5870    0.8787 </r>
       <r>    0.8171    0.3230 </r>
       <r>    1.5183    0.0000 </r>
       <r>    1.8729    0.0000 </r>
       <r>    4.8618    0.0000 </r>
       <r>    5.0393    0.0000 </r>
       <r>    5.8293    0.0000 </r>
       <r>    6.1946    0.0000 </r>
      </set>
      <set comment="kpoint 31">
       <r>   -8.3367    1.0000 </r>
       <r>   -6.3568    1.0000 </r>
       <r>   -6.3568    1.0000 </r>
       <r>   -5.2699    1.0000 </r>
       <r>   -4.2362    1.0000 </r>
       <r>   -3.0077    1.0000 </r>
       <r>   -3.0077    1.0000 </r>
       <r>   -1.2736    1.0000 </r>
       <r>   -0.3178    1.0000 </r>
       <r>   -0.3178    1.0000 </r>
       <r>    0.3515    0.9977 </r>
       <r>    0.3735    0.9963 </r>
       <r>    0.3735    0.9963 </r>
       <r>    0.7175    0.5968 </r>
       <r>    1.6370    0.0000 </r>
       <r>    3.2548    0.0000 </r>
       <r>    4.0675    0.0000 </r>
       <r>    4.8591    0.0000 </r>
       <r>    4.8591    0.0000 </r>
       <r>    5.5703    0.0000 </r>
      </set>
      <set comment="kpoint 32">
       <r>   -8.2110    1.0000 </r>
       <r>   -6.6652    1.0000 </r>
       <r>   -6.2653    1.0000 </r>
       <r>   -5.3868    1.0000 </r>
       <r>   -4.1126    1.0000 </r>
       <r>   -3.1184    1.0000 </r>
       <r>   -2.6228    1.0000 </r>
       <r>   -1.3456    1.0000 </r>
       <r>   -0.5541    1.0000 </r>
       <r>   -0.2042    1.0000 </r>
       <r>   -0.0251    1.0000 </r>
       <r>    0.3622    0.9971 </r>
       <r>    0.6394    0.7873 </r>
       <r>    0.7766    0.4315 </r>
       <r>    1.3362    0.0000 </r>
       <r>    3.0756    0.0000 </r>
       <r>    4.2456    0.0000 </r>
       <r>    4.9465    0.0000 </r>
       <r>    5.3862    0.0000 </r>
       <r>    5.6756    0.0000 </r>
      </set>
      <set comment="kpoint 33">
       <r>   -8.0607    1.0000 </r>
       <r>   -6.9533    1.0000 </r>
       <r>   -6.1592    1.0000 </r>
       <r>   -5.5132    1.0000 </r>
       <r>   -3.9783    1.0000 </r>
       <r>   -3.2467    1.0000 </r>
       <r>   -2.2440    1.0000 </r>
       <r>   -1.3642    1.0000 </r>
       <r>   -0.7733    1.0000 </r>
       <r>   -0.3981    1.0000 </r>
       <r>   -0.0616    1.0000 </r>
       <r>    0.3820    0.9956 </r>
       <r>    0.7572    0.4858 </r>
       <r>    0.9453    0.0861 </r>
       <r>    1.0483    0.0181 </r>
       <r>    2.7772    0.0000 </r>
       <r>    4.5660    0.0000 </r>
       <r>    5.0573    0.0000 </r>
       <r>    5.8360    0.0000 </r>
       <r>    5.9665    0.0000 </r>
      </set>
      <set comment="kpoint 34">
       <r>   -7.8860    1.0000 </r>
       <r>   -7.2203    1.0000 </r>
       <r>   -6.0411    1.0000 </r>
       <r>   -5.6458    1.0000 </r>
       <r>   -3.8354    1.0000 </r>
       <r>   -3.3877    1.0000 </r>
       <r>   -1.8707    1.0000 </r>
       <r>   -1.3318    1.0000 </r>
       <r>   -0.9670    1.0000 </r>
       <r>   -0.7677    1.0000 </r>
       <r>    0.1093    1.0000 </r>
       <r>    0.4315    0.9883 </r>
       <r>    0.6884    0.6740 </r>
       <r>    0.7786    0.4258 </r>
       <r>    1.2855    0.0001 </r>
       <r>    2.4177    0.0000 </r>
       <r>    5.0008    0.0000 </r>
       <r>    5.1915    0.0000 </r>
       <r>    5.7082    0.0000 </r>
       <r>    6.2559    0.0000 </r>
      </set>
      <set comment="kpoint 35">
       <r>   -7.6874    1.0000 </r>
       <r>   -7.4654    1.0000 </r>
       <r>   -5.9137    1.0000 </r>
       <r>   -5.7807    1.0000 </r>
       <r>   -3.6869    1.0000 </r>
       <r>   -3.5360    1.0000 </r>
       <r>   -1.5014    1.0000 </r>
       <r>   -1.2519    1.0000 </r>
       <r>   -1.1346    1.0000 </r>
       <r>   -1.1283    1.0000 </r>
       <r>    0.3070    0.9992 </r>
       <r>    0.5065    0.9588 </r>
       <r>    0.5309    0.9412 </r>
       <r>    0.5972    0.8635 </r>
       <r>    1.6528    0.0000 </r>
       <r>    2.0353    0.0000 </r>
       <r>    5.3471    0.0000 </r>
       <r>    5.5199    0.0000 </r>
       <r>    5.5219    0.0000 </r>
       <r>    6.1018    0.0000 </r>
      </set>
      <set comment="kpoint 36">
       <r>   -8.0866    1.0000 </r>
       <r>   -6.5657    1.0000 </r>
       <r>   -6.5657    1.0000 </r>
       <r>   -5.5406    1.0000 </r>
       <r>   -3.9664    1.0000 </r>
       <r>   -2.7719    1.0000 </r>
       <r>   -2.7719    1.0000 </r>
       <r>   -1.3871    1.0000 </r>
       <r>   -0.4530    1.0000 </r>
       <r>   -0.4530    1.0000 </r>
       <r>   -0.3809    1.0000 </r>
       <r>    0.6702    0.7189 </r>
       <r>    0.6702    0.7189 </r>
       <r>    0.9456    0.0857 </r>
       <r>    1.0392    0.0212 </r>
       <r>    3.0325    0.0000 </r>
       <r>    4.2874    0.0000 </r>
       <r>    5.4775    0.0000 </r>
       <r>    5.4775    0.0000 </r>
       <r>    5.6377    0.0000 </r>
      </set>
      <set comment="kpoint 37">
       <r>   -7.9379    1.0000 </r>
       <r>   -6.8477    1.0000 </r>
       <r>   -6.4494    1.0000 </r>
       <r>   -5.7003    1.0000 </r>
       <r>   -3.8097    1.0000 </r>
       <r>   -2.9373    1.0000 </r>
       <r>   -2.4308    1.0000 </r>
       <r>   -1.3775    1.0000 </r>
       <r>   -0.7323    1.0000 </r>
       <r>   -0.6857    1.0000 </r>
       <r>   -0.3211    1.0000 </r>
       <r>    0.7248    0.5768 </r>
       <r>    0.7554    0.4909 </r>
       <r>    1.0149    0.0316 </r>
       <r>    1.0229    0.0278 </r>
       <r>    2.8380    0.0000 </r>
       <r>    4.4835    0.0000 </r>
       <r>    5.5905    0.0000 </r>
       <r>    5.7314    0.0000 </r>
       <r>    6.0512    0.0000 </r>
      </set>
      <set comment="kpoint 38">
       <r>   -7.7653    1.0000 </r>
       <r>   -7.1096    1.0000 </r>
       <r>   -6.3183    1.0000 </r>
       <r>   -5.8619    1.0000 </r>
       <r>   -3.6436    1.0000 </r>
       <r>   -3.1126    1.0000 </r>
       <r>   -2.0934    1.0000 </r>
       <r>   -1.3194    1.0000 </r>
       <r>   -1.0784    1.0000 </r>
       <r>   -0.8949    1.0000 </r>
       <r>   -0.1592    1.0000 </r>
       <r>    0.4905    0.9679 </r>
       <r>    0.7982    0.3725 </r>
       <r>    1.0203    0.0290 </r>
       <r>    1.3885    0.0000 </r>
       <r>    2.5332    0.0000 </r>
       <r>    4.8213    0.0000 </r>
       <r>    5.7242    0.0000 </r>
       <r>    5.9170    0.0000 </r>
       <r>    6.2846    0.0000 </r>
      </set>
      <set comment="kpoint 39">
       <r>   -7.5694    1.0000 </r>
       <r>   -7.3505    1.0000 </r>
       <r>   -6.1746    1.0000 </r>
       <r>   -6.0213    1.0000 </r>
       <r>   -3.4700    1.0000 </r>
       <r>   -3.2917    1.0000 </r>
       <r>   -1.7569    1.0000 </r>
       <r>   -1.4193    1.0000 </r>
       <r>   -1.2164    1.0000 </r>
       <r>   -1.0733    1.0000 </r>
       <r>    0.0310    1.0000 </r>
       <r>    0.2482    0.9998 </r>
       <r>    0.8829    0.1777 </r>
       <r>    0.9639    0.0672 </r>
       <r>    1.7786    0.0000 </r>
       <r>    2.1682    0.0000 </r>
       <r>    5.2708    0.0000 </r>
       <r>    5.8030    0.0000 </r>
       <r>    5.8747    0.0000 </r>
       <r>    6.0162    0.0000 </r>
      </set>
      <set comment="kpoint 40">
       <r>   -7.7913    1.0000 </r>
       <r>   -6.7230    1.0000 </r>
       <r>   -6.7230    1.0000 </r>
       <r>   -5.8890    1.0000 </r>
       <r>   -3.6315    1.0000 </r>
       <r>   -2.6308    1.0000 </r>
       <r>   -2.6308    1.0000 </r>
       <r>   -1.3423    1.0000 </r>
       <r>   -1.0629    1.0000 </r>
       <r>   -0.5648    1.0000 </r>
       <r>   -0.5648    1.0000 </r>
       <r>    0.4761    0.9746 </r>
       <r>    1.0980    0.0072 </r>
       <r>    1.0980    0.0072 </r>
       <r>    1.2096    0.0006 </r>
       <r>    2.7654    0.0000 </r>
       <r>    4.5410    0.0000 </r>
       <r>    5.6556    0.0000 </r>
       <r>    6.1621    0.0000 </r>
       <r>    6.1622    0.0000 </r>
      </set>
      <set comment="kpoint 41">
       <r>   -7.6214    1.0000 </r>
       <r>   -6.9785    1.0000 </r>
       <r>   -6.5815    1.0000 </r>
       <r>   -6.0751    1.0000 </r>
       <r>   -3.4436    1.0000 </r>
       <r>   -2.8373    1.0000 </r>
       <r>   -2.3253    1.0000 </r>
       <r>   -1.3873    1.0000 </r>
       <r>   -1.2613    1.0000 </r>
       <r>   -0.7864    1.0000 </r>
       <r>   -0.4126    1.0000 </r>
       <r>    0.2163    0.9999 </r>
       <r>    1.1848    0.0011 </r>
       <r>    1.3026    0.0000 </r>
       <r>    1.4891    0.0000 </r>
       <r>    2.5577    0.0000 </r>
       <r>    4.7514    0.0000 </r>
       <r>    5.6996    0.0000 </r>
       <r>    6.0934    0.0000 </r>
       <r>    6.2617    0.0000 </r>
      </set>
      <set comment="kpoint 42">
       <r>   -7.4288    1.0000 </r>
       <r>   -7.2141    1.0000 </r>
       <r>   -6.4246    1.0000 </r>
       <r>   -6.2548    1.0000 </r>
       <r>   -3.2474    1.0000 </r>
       <r>   -3.0441    1.0000 </r>
       <r>   -2.0174    1.0000 </r>
       <r>   -1.7054    1.0000 </r>
       <r>   -1.1392    1.0000 </r>
       <r>   -0.9792    1.0000 </r>
       <r>   -0.2304    1.0000 </r>
       <r>   -0.0202    1.0000 </r>
       <r>    1.2626    0.0002 </r>
       <r>    1.3110    0.0000 </r>
       <r>    1.8813    0.0000 </r>
       <r>    2.2489    0.0000 </r>
       <r>    5.1008    0.0000 </r>
       <r>    5.5592    0.0000 </r>
       <r>    5.8467    0.0000 </r>
       <r>    6.0649    0.0000 </r>
      </set>
      <set comment="kpoint 43">
       <r>   -7.4549    1.0000 </r>
       <r>   -6.8284    1.0000 </r>
       <r>   -6.8284    1.0000 </r>
       <r>   -6.2816    1.0000 </r>
       <r>   -3.2349    1.0000 </r>
       <r>   -2.5595    1.0000 </r>
       <r>   -2.5595    1.0000 </r>
       <r>   -1.6910    1.0000 </r>
       <r>   -1.1612    1.0000 </r>
       <r>   -0.6442    1.0000 </r>
       <r>   -0.6442    1.0000 </r>
       <r>   -0.0378    1.0000 </r>
       <r>    1.5029    0.0000 </r>
       <r>    1.5730    0.0000 </r>
       <r>    1.5730    0.0000 </r>
       <r>    2.4634    0.0000 </r>
       <r>    4.8187    0.0000 </r>
       <r>    5.5649    0.0000 </r>
       <r>    5.8415    0.0000 </r>
       <r>    5.8415    0.0000 </r>
      </set>
      <set comment="kpoint 44">
       <r>   -7.2666    1.0000 </r>
       <r>   -7.0571    1.0000 </r>
       <r>   -6.6609    1.0000 </r>
       <r>   -6.4778    1.0000 </r>
       <r>   -3.0170    1.0000 </r>
       <r>   -2.7911    1.0000 </r>
       <r>   -2.2767    1.0000 </r>
       <r>   -1.9877    1.0000 </r>
       <r>   -1.0226    1.0000 </r>
       <r>   -0.8490    1.0000 </r>
       <r>   -0.4706    1.0000 </r>
       <r>   -0.2680    1.0000 </r>
       <r>    1.6066    0.0000 </r>
       <r>    1.6210    0.0000 </r>
       <r>    1.9390    0.0000 </r>
       <r>    2.2483    0.0000 </r>
       <r>    5.0361    0.0000 </r>
       <r>    5.3885    0.0000 </r>
       <r>    5.5528    0.0000 </r>
       <r>    5.6536    0.0000 </r>
      </set>
      <set comment="kpoint 45">
       <r>   -7.0834    1.0000 </r>
       <r>   -6.8811    1.0000 </r>
       <r>   -6.8811    1.0000 </r>
       <r>   -6.6874    1.0000 </r>
       <r>   -2.7780    1.0000 </r>
       <r>   -2.5310    1.0000 </r>
       <r>   -2.5310    1.0000 </r>
       <r>   -2.2632    1.0000 </r>
       <r>   -0.8702    1.0000 </r>
       <r>   -0.6852    1.0000 </r>
       <r>   -0.6852    1.0000 </r>
       <r>   -0.4904    1.0000 </r>
       <r>    1.8185    0.0000 </r>
       <r>    1.9265    0.0000 </r>
       <r>    1.9265    0.0000 </r>
       <r>    2.1426    0.0000 </r>
       <r>    5.1039    0.0000 </r>
       <r>    5.3157    0.0000 </r>
       <r>    5.3157    0.0000 </r>
       <r>    5.3672    0.0000 </r>
      </set>
      <set comment="kpoint 46">
       <r>   -8.7690    1.0000 </r>
       <r>   -5.4277    1.0000 </r>
       <r>   -5.4277    1.0000 </r>
       <r>   -5.4277    1.0000 </r>
       <r>   -4.1817    1.0000 </r>
       <r>   -4.1817    1.0000 </r>
       <r>   -4.1817    1.0000 </r>
       <r>   -0.1120    1.0000 </r>
       <r>   -0.1120    1.0000 </r>
       <r>   -0.1120    1.0000 </r>
       <r>    0.3168    0.9990 </r>
       <r>    0.3168    0.9990 </r>
       <r>    0.3168    0.9990 </r>
       <r>    2.4330    0.0000 </r>
       <r>    3.4685    0.0000 </r>
       <r>    3.4685    0.0000 </r>
       <r>    3.6601    0.0000 </r>
       <r>    3.6601    0.0000 </r>
       <r>    3.6601    0.0000 </r>
       <r>    4.2525    0.0000 </r>
      </set>
      <set comment="kpoint 47">
       <r>   -8.7178    1.0000 </r>
       <r>   -5.8075    1.0000 </r>
       <r>   -5.4050    1.0000 </r>
       <r>   -5.4050    1.0000 </r>
       <r>   -4.1788    1.0000 </r>
       <r>   -4.1788    1.0000 </r>
       <r>   -3.7409    1.0000 </r>
       <r>   -0.3238    1.0000 </r>
       <r>   -0.3238    1.0000 </r>
       <r>   -0.0455    1.0000 </r>
       <r>    0.3107    0.9991 </r>
       <r>    0.3107    0.9991 </r>
       <r>    0.3723    0.9964 </r>
       <r>    2.0379    0.0000 </r>
       <r>    3.2243    0.0000 </r>
       <r>    3.3968    0.0000 </r>
       <r>    3.6788    0.0000 </r>
       <r>    3.7862    0.0000 </r>
       <r>    3.7862    0.0000 </r>
       <r>    4.3652    0.0000 </r>
      </set>
      <set comment="kpoint 48">
       <r>   -8.6410    1.0000 </r>
       <r>   -6.1686    1.0000 </r>
       <r>   -5.3734    1.0000 </r>
       <r>   -5.3734    1.0000 </r>
       <r>   -4.1759    1.0000 </r>
       <r>   -4.1759    1.0000 </r>
       <r>   -3.2898    1.0000 </r>
       <r>   -0.5299    1.0000 </r>
       <r>   -0.5299    1.0000 </r>
       <r>    0.0540    1.0000 </r>
       <r>    0.2335    0.9999 </r>
       <r>    0.2335    0.9999 </r>
       <r>    0.4561    0.9819 </r>
       <r>    1.6225    0.0000 </r>
       <r>    2.9354    0.0000 </r>
       <r>    3.1374    0.0000 </r>
       <r>    3.7152    0.0000 </r>
       <r>    4.0482    0.0000 </r>
       <r>    4.0482    0.0000 </r>
       <r>    4.5254    0.0000 </r>
      </set>
      <set comment="kpoint 49">
       <r>   -8.5387    1.0000 </r>
       <r>   -6.5094    1.0000 </r>
       <r>   -5.3356    1.0000 </r>
       <r>   -5.3356    1.0000 </r>
       <r>   -4.1744    1.0000 </r>
       <r>   -4.1744    1.0000 </r>
       <r>   -2.8317    1.0000 </r>
       <r>   -0.7141    1.0000 </r>
       <r>   -0.7141    1.0000 </r>
       <r>    0.1137    1.0000 </r>
       <r>    0.1137    1.0000 </r>
       <r>    0.1872    1.0000 </r>
       <r>    0.5662    0.9057 </r>
       <r>    1.1997    0.0008 </r>
       <r>    2.6316    0.0000 </r>
       <r>    2.7916    0.0000 </r>
       <r>    3.7734    0.0000 </r>
       <r>    4.4230    0.0000 </r>
       <r>    4.4230    0.0000 </r>
       <r>    4.7284    0.0000 </r>
      </set>
      <set comment="kpoint 50">
       <r>   -8.4111    1.0000 </r>
       <r>   -6.8289    1.0000 </r>
       <r>   -5.2956    1.0000 </r>
       <r>   -5.2956    1.0000 </r>
       <r>   -4.1755    1.0000 </r>
       <r>   -4.1755    1.0000 </r>
       <r>   -2.3692    1.0000 </r>
       <r>   -0.8663    1.0000 </r>
       <r>   -0.8663    1.0000 </r>
       <r>   -0.0192    1.0000 </r>
       <r>   -0.0192    1.0000 </r>
       <r>    0.3544    0.9975 </r>
       <r>    0.7032    0.6355 </r>
       <r>    0.7736    0.4398 </r>
       <r>    2.3292    0.0000 </r>
       <r>    2.4200    0.0000 </r>
       <r>    3.8557    0.0000 </r>
       <r>    4.8841    0.0000 </r>
       <r>    4.8841    0.0000 </r>
       <r>    4.9709    0.0000 </r>
      </set>
      <set comment="kpoint 51">
       <r>   -8.2584    1.0000 </r>
       <r>   -7.1264    1.0000 </r>
       <r>   -5.2581    1.0000 </r>
       <r>   -5.2581    1.0000 </r>
       <r>   -4.1788    1.0000 </r>
       <r>   -4.1788    1.0000 </r>
       <r>   -1.9061    1.0000 </r>
       <r>   -0.9810    1.0000 </r>
       <r>   -0.9810    1.0000 </r>
       <r>   -0.1403    1.0000 </r>
       <r>   -0.1403    1.0000 </r>
       <r>    0.3426    0.9981 </r>
       <r>    0.5558    0.9175 </r>
       <r>    0.8658    0.2108 </r>
       <r>    2.0370    0.0000 </r>
       <r>    2.0494    0.0000 </r>
       <r>    3.9629    0.0000 </r>
       <r>    4.8537    0.0000 </r>
       <r>    5.2487    0.0000 </r>
       <r>    5.4109    0.0000 </r>
      </set>
      <set comment="kpoint 52">
       <r>   -8.0807    1.0000 </r>
       <r>   -7.4008    1.0000 </r>
       <r>   -5.2287    1.0000 </r>
       <r>   -5.2287    1.0000 </r>
       <r>   -4.1832    1.0000 </r>
       <r>   -4.1832    1.0000 </r>
       <r>   -1.4444    1.0000 </r>
       <r>   -1.0569    1.0000 </r>
       <r>   -1.0569    1.0000 </r>
       <r>   -0.2314    1.0000 </r>
       <r>   -0.2314    1.0000 </r>
       <r>   -0.0938    1.0000 </r>
       <r>    0.7918    0.3896 </r>
       <r>    1.0544    0.0163 </r>
       <r>    1.6943    0.0000 </r>
       <r>    1.7603    0.0000 </r>
       <r>    4.0957    0.0000 </r>
       <r>    4.6342    0.0000 </r>
       <r>    5.5564    0.0000 </r>
       <r>    5.9893    0.0000 </r>
      </set>
      <set comment="kpoint 53">
       <r>   -7.8783    1.0000 </r>
       <r>   -7.6515    1.0000 </r>
       <r>   -5.2123    1.0000 </r>
       <r>   -5.2123    1.0000 </r>
       <r>   -4.1860    1.0000 </r>
       <r>   -4.1860    1.0000 </r>
       <r>   -1.0938    1.0000 </r>
       <r>   -1.0938    1.0000 </r>
       <r>   -0.9873    1.0000 </r>
       <r>   -0.5366    1.0000 </r>
       <r>   -0.2803    1.0000 </r>
       <r>   -0.2803    1.0000 </r>
       <r>    1.0613    0.0144 </r>
       <r>    1.2673    0.0001 </r>
       <r>    1.3634    0.0000 </r>
       <r>    1.5035    0.0000 </r>
       <r>    4.2525    0.0000 </r>
       <r>    4.4330    0.0000 </r>
       <r>    5.8822    0.0000 </r>
       <r>    6.1982    0.0000 </r>
      </set>
      <set comment="kpoint 54">
       <r>   -8.6667    1.0000 </r>
       <r>   -5.7783    1.0000 </r>
       <r>   -5.7783    1.0000 </r>
       <r>   -5.3904    1.0000 </r>
       <r>   -4.1746    1.0000 </r>
       <r>   -3.7528    1.0000 </r>
       <r>   -3.7528    1.0000 </r>
       <r>   -0.5499    1.0000 </r>
       <r>   -0.2517    1.0000 </r>
       <r>   -0.2517    1.0000 </r>
       <r>    0.3693    0.9966 </r>
       <r>    0.3693    0.9966 </r>
       <r>    0.4131    0.9917 </r>
       <r>    1.6578    0.0000 </r>
       <r>    3.0488    0.0000 </r>
       <r>    3.4157    0.0000 </r>
       <r>    3.7741    0.0000 </r>
       <r>    3.8236    0.0000 </r>
       <r>    3.8236    0.0000 </r>
       <r>    4.7217    0.0000 </r>
      </set>
      <set comment="kpoint 55">
       <r>   -8.5902    1.0000 </r>
       <r>   -6.1345    1.0000 </r>
       <r>   -5.7360    1.0000 </r>
       <r>   -5.3719    1.0000 </r>
       <r>   -4.1685    1.0000 </r>
       <r>   -3.7727    1.0000 </r>
       <r>   -3.3195    1.0000 </r>
       <r>   -0.7519    1.0000 </r>
       <r>   -0.4530    1.0000 </r>
       <r>   -0.1428    1.0000 </r>
       <r>    0.3007    0.9993 </r>
       <r>    0.4305    0.9885 </r>
       <r>    0.4565    0.9817 </r>
       <r>    1.2589    0.0002 </r>
       <r>    2.7638    0.0000 </r>
       <r>    3.2786    0.0000 </r>
       <r>    3.8810    0.0000 </r>
       <r>    3.9129    0.0000 </r>
       <r>    4.0940    0.0000 </r>
       <r>    4.8577    0.0000 </r>
      </set>
      <set comment="kpoint 56">
       <r>   -8.4883    1.0000 </r>
       <r>   -6.4717    1.0000 </r>
       <r>   -5.6826    1.0000 </r>
       <r>   -5.3535    1.0000 </r>
       <r>   -4.1596    1.0000 </r>
       <r>   -3.8021    1.0000 </r>
       <r>   -2.8828    1.0000 </r>
       <r>   -0.9184    1.0000 </r>
       <r>   -0.6361    1.0000 </r>
       <r>    0.0026    1.0000 </r>
       <r>    0.1964    1.0000 </r>
       <r>    0.3752    0.9962 </r>
       <r>    0.5735    0.8967 </r>
       <r>    0.8566    0.2302 </r>
       <r>    2.4540    0.0000 </r>
       <r>    2.9941    0.0000 </r>
       <r>    3.9601    0.0000 </r>
       <r>    4.1929    0.0000 </r>
       <r>    4.4722    0.0000 </r>
       <r>    5.0356    0.0000 </r>
      </set>
      <set comment="kpoint 57">
       <r>   -8.3611    1.0000 </r>
       <r>   -6.7881    1.0000 </r>
       <r>   -5.6213    1.0000 </r>
       <r>   -5.3409    1.0000 </r>
       <r>   -4.1461    1.0000 </r>
       <r>   -3.8417    1.0000 </r>
       <r>   -2.4465    1.0000 </r>
       <r>   -1.0428    1.0000 </r>
       <r>   -0.7943    1.0000 </r>
       <r>    0.0871    1.0000 </r>
       <r>    0.1841    1.0000 </r>
       <r>    0.2756    0.9996 </r>
       <r>    0.4545    0.9824 </r>
       <r>    0.7203    0.5893 </r>
       <r>    2.1381    0.0000 </r>
       <r>    2.6491    0.0000 </r>
       <r>    4.0615    0.0000 </r>
       <r>    4.5872    0.0000 </r>
       <r>    4.9342    0.0000 </r>
       <r>    5.2535    0.0000 </r>
      </set>
      <set comment="kpoint 58">
       <r>   -8.2090    1.0000 </r>
       <r>   -7.0831    1.0000 </r>
       <r>   -5.5558    1.0000 </r>
       <r>   -5.3392    1.0000 </r>
       <r>   -4.1249    1.0000 </r>
       <r>   -3.8903    1.0000 </r>
       <r>   -2.0131    1.0000 </r>
       <r>   -1.1207    1.0000 </r>
       <r>   -0.9244    1.0000 </r>
       <r>   -0.0022    1.0000 </r>
       <r>    0.0530    1.0000 </r>
       <r>    0.1615    1.0000 </r>
[...]
       <r>   -3.6668    1.0000 </r>
       <r>    1.2988    0.0001 </r>
       <r>    1.4543    0.0000 </r>
       <r>    1.4543    0.0000 </r>
       <r>    1.6740    0.0000 </r>
       <r>    2.0086    0.0000 </r>
       <r>    2.0463    0.0000 </r>
       <r>    2.0463    0.0000 </r>
       <r>    2.1583    0.0000 </r>
       <r>    4.3869    0.0000 </r>
       <r>    4.5773    0.0000 </r>
       <r>    4.5773    0.0000 </r>
       <r>    4.6626    0.0000 </r>
      </set>
      <set comment="kpoint 162">
       <r>   -6.9282    1.0000 </r>
       <r>   -6.5645    1.0000 </r>
       <r>   -6.5645    1.0000 </r>
       <r>   -6.5645    1.0000 </r>
       <r>   -3.9044    1.0000 </r>
       <r>   -3.9044    1.0000 </r>
       <r>   -3.9044    1.0000 </r>
       <r>   -3.4978    1.0000 </r>
       <r>    1.3810    0.0000 </r>
       <r>    1.3810    0.0000 </r>
       <r>    1.3810    0.0000 </r>
       <r>    1.9110    0.0000 </r>
       <r>    1.9110    0.0000 </r>
       <r>    1.9110    0.0000 </r>
       <r>    2.1776    0.0000 </r>
       <r>    2.1776    0.0000 </r>
       <r>    4.0426    0.0000 </r>
       <r>    4.6710    0.0000 </r>
       <r>    4.6710    0.0000 </r>
       <r>    4.6710    0.0000 </r>
      </set>
      <set comment="kpoint 163">
       <r>   -6.8033    1.0000 </r>
       <r>   -6.6795    1.0000 </r>
       <r>   -6.5436    1.0000 </r>
       <r>   -6.5436    1.0000 </r>
       <r>   -3.9689    1.0000 </r>
       <r>   -3.9689    1.0000 </r>
       <r>   -3.8190    1.0000 </r>
       <r>   -3.6810    1.0000 </r>
       <r>    1.4817    0.0000 </r>
       <r>    1.4817    0.0000 </r>
       <r>    1.7762    0.0000 </r>
       <r>    1.9736    0.0000 </r>
       <r>    1.9736    0.0000 </r>
       <r>    2.0027    0.0000 </r>
       <r>    2.0747    0.0000 </r>
       <r>    2.0928    0.0000 </r>
       <r>    4.1348    0.0000 </r>
       <r>    4.3856    0.0000 </r>
       <r>    4.5665    0.0000 </r>
       <r>    4.5665    0.0000 </r>
      </set>
      <set comment="kpoint 164">
       <r>   -6.7053    1.0000 </r>
       <r>   -6.6163    1.0000 </r>
       <r>   -6.6163    1.0000 </r>
       <r>   -6.5695    1.0000 </r>
       <r>   -3.9826    1.0000 </r>
       <r>   -3.9312    1.0000 </r>
       <r>   -3.9312    1.0000 </r>
       <r>   -3.8330    1.0000 </r>
       <r>    1.6968    0.0000 </r>
       <r>    1.8005    0.0000 </r>
       <r>    1.8005    0.0000 </r>
       <r>    1.9884    0.0000 </r>
       <r>    2.0518    0.0000 </r>
       <r>    2.0666    0.0000 </r>
       <r>    2.0666    0.0000 </r>
       <r>    2.1447    0.0000 </r>
       <r>    4.1164    0.0000 </r>
       <r>    4.2921    0.0000 </r>
       <r>    4.2921    0.0000 </r>
       <r>    4.3630    0.0000 </r>
      </set>
      <set comment="kpoint 165">
       <r>   -6.6421    1.0000 </r>
       <r>   -6.5953    1.0000 </r>
       <r>   -6.5953    1.0000 </r>
       <r>   -6.5953    1.0000 </r>
       <r>   -3.9969    1.0000 </r>
       <r>   -3.9969    1.0000 </r>
       <r>   -3.9969    1.0000 </r>
       <r>   -3.9455    1.0000 </r>
       <r>    2.0036    0.0000 </r>
       <r>    2.0036    0.0000 </r>
       <r>    2.0036    0.0000 </r>
       <r>    2.0905    0.0000 </r>
       <r>    2.0905    0.0000 </r>
       <r>    2.0905    0.0000 </r>
       <r>    2.1220    0.0000 </r>
       <r>    2.1220    0.0000 </r>
       <r>    3.9974    0.0000 </r>
       <r>    4.1028    0.0000 </r>
       <r>    4.1028    0.0000 </r>
       <r>    4.1028    0.0000 </r>
      </set>
     </set>
    </set>
   </array>
  </eigenvalues>
  <separator name="orbital magnetization" >
   <v name="MAGDIPOLOUT">      0.00000000      0.00000000      0.00000000</v>
  </separator>
  <dos>
   <i name="efermi">      0.75217519 </i>
   <total>
    <array>
     <dimension dim="1">gridpoints</dimension>
     <dimension dim="2">spin</dimension>
     <field>energy</field>
     <field>total</field>
     <field>integrated</field>
     <set>
      <set comment="spin 1">
       <r>   -10.8460     0.0000     0.0000 </r>
       <r>   -10.7819     0.0000     0.0000 </r>
       <r>   -10.7178     0.0000     0.0000 </r>
       <r>   -10.6537     0.0000     0.0000 </r>
       <r>   -10.5896     0.0000     0.0000 </r>
       <r>   -10.5255     0.0000     0.0000 </r>
       <r>   -10.4614     0.0000     0.0000 </r>
       <r>   -10.3974     0.0000     0.0000 </r>
       <r>   -10.3333     0.0000     0.0000 </r>
       <r>   -10.2692     0.0000     0.0000 </r>
       <r>   -10.2051     0.0000     0.0000 </r>
       <r>   -10.1410     0.0000     0.0000 </r>
       <r>   -10.0769     0.0000     0.0000 </r>
       <r>   -10.0128     0.0000     0.0000 </r>
       <r>    -9.9487     0.0000     0.0000 </r>
       <r>    -9.8846     0.0000     0.0000 </r>
       <r>    -9.8206     0.0000     0.0000 </r>
       <r>    -9.7565     0.0000     0.0000 </r>
       <r>    -9.6924     0.0000     0.0000 </r>
       <r>    -9.6283     0.0000     0.0000 </r>
       <r>    -9.5642     0.0000     0.0000 </r>
       <r>    -9.5001     0.0000     0.0000 </r>
       <r>    -9.4360     0.0000     0.0000 </r>
       <r>    -9.3719     0.0000     0.0000 </r>
       <r>    -9.3078     0.0001     0.0000 </r>
       <r>    -9.2438     0.0004     0.0000 </r>
       <r>    -9.1797     0.0018     0.0001 </r>
       <r>    -9.1156     0.0062     0.0005 </r>
       <r>    -9.0515     0.0181     0.0017 </r>
       <r>    -8.9874     0.0448     0.0046 </r>
       <r>    -8.9233     0.0949     0.0107 </r>
       <r>    -8.8592     0.1742     0.0218 </r>
       <r>    -8.7951     0.2812     0.0398 </r>
       <r>    -8.7310     0.4060     0.0659 </r>
       <r>    -8.6669     0.5350     0.1002 </r>
       <r>    -8.6029     0.6571     0.1423 </r>
       <r>    -8.5388     0.7668     0.1914 </r>
       <r>    -8.4747     0.8640     0.2468 </r>
       <r>    -8.4106     0.9511     0.3077 </r>
       <r>    -8.3465     1.0307     0.3738 </r>
       <r>    -8.2824     1.1050     0.4446 </r>
       <r>    -8.2183     1.1753     0.5199 </r>
       <r>    -8.1542     1.2426     0.5996 </r>
       <r>    -8.0901     1.3075     0.6834 </r>
       <r>    -8.0261     1.3705     0.7712 </r>
       <r>    -7.9620     1.4321     0.8630 </r>
       <r>    -7.8979     1.4925     0.9586 </r>
       <r>    -7.8338     1.5520     1.0581 </r>
       <r>    -7.7697     1.6109     1.1613 </r>
       <r>    -7.7056     1.6699     1.2684 </r>
       <r>    -7.6415     1.7288     1.3792 </r>
       <r>    -7.5774     1.7873     1.4937 </r>
       <r>    -7.5133     1.8464     1.6120 </r>
       <r>    -7.4493     1.9073     1.7343 </r>
       <r>    -7.3852     1.9696     1.8605 </r>
       <r>    -7.3211     2.0322     1.9908 </r>
       <r>    -7.2570     2.0964     2.1251 </r>
       <r>    -7.1929     2.1654     2.2639 </r>
       <r>    -7.1288     2.2397     2.4074 </r>
       <r>    -7.0647     2.3175     2.5560 </r>
       <r>    -7.0006     2.3995     2.7098 </r>
       <r>    -6.9365     2.4924     2.8695 </r>
       <r>    -6.8724     2.6038     3.0364 </r>
       <r>    -6.8084     2.7354     3.2117 </r>
       <r>    -6.7443     2.8830     3.3964 </r>
       <r>    -6.6802     3.0389     3.5912 </r>
       <r>    -6.6161     3.1915     3.7957 </r>
       <r>    -6.5520     3.3209     4.0086 </r>
       <r>    -6.4879     3.4026     4.2267 </r>
       <r>    -6.4238     3.4213     4.4459 </r>
       <r>    -6.3597     3.3826     4.6627 </r>
       <r>    -6.2956     3.3104     4.8749 </r>
       <r>    -6.2316     3.2291     5.0818 </r>
       <r>    -6.1675     3.1479     5.2836 </r>
       <r>    -6.1034     3.0613     5.4798 </r>
       <r>    -6.0393     2.9628     5.6696 </r>
       <r>    -5.9752     2.8560     5.8527 </r>
       <r>    -5.9111     2.7528     6.0291 </r>
       <r>    -5.8470     2.6629     6.1998 </r>
       <r>    -5.7829     2.5833     6.3653 </r>
       <r>    -5.7188     2.4970     6.5254 </r>
       <r>    -5.6547     2.3882     6.6784 </r>
       <r>    -5.5907     2.2623     6.8234 </r>
       <r>    -5.5266     2.1464     6.9610 </r>
       <r>    -5.4625     2.0594     7.0930 </r>
       <r>    -5.3984     1.9854     7.2202 </r>
       <r>    -5.3343     1.8855     7.3410 </r>
       <r>    -5.2702     1.7410     7.4526 </r>
       <r>    -5.2061     1.5755     7.5536 </r>
       <r>    -5.1420     1.4286     7.6452 </r>
       <r>    -5.0779     1.3107     7.7292 </r>
       <r>    -5.0139     1.1909     7.8055 </r>
       <r>    -4.9498     1.0316     7.8716 </r>
       <r>    -4.8857     0.8330     7.9250 </r>
       <r>    -4.8216     0.6435     7.9662 </r>
       <r>    -4.7575     0.5292     8.0001 </r>
       <r>    -4.6934     0.5294     8.0341 </r>
       <r>    -4.6293     0.6293     8.0744 </r>
       <r>    -4.5652     0.7708     8.1238 </r>
       <r>    -4.5011     0.8960     8.1812 </r>
       <r>    -4.4371     0.9938     8.2449 </r>
       <r>    -4.3730     1.1075     8.3159 </r>
       <r>    -4.3089     1.2909     8.3986 </r>
       <r>    -4.2448     1.5552     8.4983 </r>
       <r>    -4.1807     1.8639     8.6178 </r>
       <r>    -4.1166     2.1914     8.7582 </r>
       <r>    -4.0525     2.5766     8.9233 </r>
       <r>    -3.9884     3.0921     9.1215 </r>
       <r>    -3.9243     3.7387     9.3611 </r>
       <r>    -3.8602     4.3783     9.6417 </r>
       <r>    -3.7962     4.7971     9.9492 </r>
       <r>    -3.7321     4.8546    10.2603 </r>
       <r>    -3.6680     4.5796    10.5538 </r>
       <r>    -3.6039     4.1338    10.8187 </r>
       <r>    -3.5398     3.6918    11.0553 </r>
       <r>    -3.4757     3.3477    11.2699 </r>
       <r>    -3.4116     3.1033    11.4688 </r>
       <r>    -3.3475     2.9136    11.6555 </r>
       <r>    -3.2834     2.7364    11.8309 </r>
       <r>    -3.2194     2.5569    11.9947 </r>
       <r>    -3.1553     2.3868    12.1477 </r>
       <r>    -3.0912     2.2474    12.2917 </r>
       <r>    -3.0271     2.1492    12.4295 </r>
       <r>    -2.9630     2.0808    12.5628 </r>
       <r>    -2.8989     2.0177    12.6921 </r>
       <r>    -2.8348     1.9437    12.8167 </r>
       <r>    -2.7707     1.8573    12.9357 </r>
       <r>    -2.7066     1.7642    13.0488 </r>
       <r>    -2.6426     1.6745    13.1561 </r>
       <r>    -2.5785     1.6036    13.2589 </r>
       <r>    -2.5144     1.5600    13.3589 </r>
       <r>    -2.4503     1.5298    13.4569 </r>
       <r>    -2.3862     1.4882    13.5523 </r>
       <r>    -2.3221     1.4282    13.6438 </r>
       <r>    -2.2580     1.3645    13.7313 </r>
       <r>    -2.1939     1.3088    13.8152 </r>
       <r>    -2.1298     1.2577    13.8958 </r>
       <r>    -2.0657     1.2091    13.9733 </r>
       <r>    -2.0017     1.1729    14.0484 </r>
       <r>    -1.9376     1.1531    14.1223 </r>
       <r>    -1.8735     1.1328    14.1949 </r>
       <r>    -1.8094     1.0918    14.2649 </r>
       <r>    -1.7453     1.0360    14.3313 </r>
       <r>    -1.6812     0.9964    14.3952 </r>
       <r>    -1.6171     1.0014    14.4593 </r>
       <r>    -1.5530     1.0634    14.5275 </r>
       <r>    -1.4889     1.1976    14.6043 </r>
       <r>    -1.4249     1.4348    14.6962 </r>
       <r>    -1.3608     1.8001    14.8116 </r>
       <r>    -1.2967     2.2788    14.9576 </r>
       <r>    -1.2326     2.8110    15.1378 </r>
       <r>    -1.1685     3.3227    15.3507 </r>
       <r>    -1.1044     3.7548    15.5914 </r>
       <r>    -1.0403     4.0696    15.8522 </r>
       <r>    -0.9762     4.2488    16.1245 </r>
       <r>    -0.9121     4.2974    16.3999 </r>
       <r>    -0.8481     4.2469    16.6721 </r>
       <r>    -0.7840     4.1458    16.9378 </r>
       <r>    -0.7199     4.0425    17.1969 </r>
       <r>    -0.6558     3.9701    17.4513 </r>
       <r>    -0.5917     3.9385    17.7037 </r>
       <r>    -0.5276     3.9374    17.9561 </r>
       <r>    -0.4635     3.9500    18.2092 </r>
       <r>    -0.3994     3.9686    18.4636 </r>
       <r>    -0.3353     3.9997    18.7199 </r>
       <r>    -0.2712     4.0525    18.9796 </r>
       <r>    -0.2072     4.1248    19.2440 </r>
       <r>    -0.1431     4.2057    19.5135 </r>
       <r>    -0.0790     4.2928    19.7887 </r>
       <r>    -0.0149     4.4018    20.0708 </r>
       <r>     0.0492     4.5529    20.3626 </r>
       <r>     0.1133     4.7463    20.6667 </r>
       <r>     0.1774     4.9519    20.9841 </r>
       <r>     0.2415     5.1276    21.3127 </r>
       <r>     0.3056     5.2504    21.6492 </r>
       <r>     0.3696     5.3236    21.9904 </r>
       <r>     0.4337     5.3565    22.3337 </r>
       <r>     0.4978     5.3494    22.6766 </r>
       <r>     0.5619     5.3044    23.0165 </r>
       <r>     0.6260     5.2373    23.3522 </r>
       <r>     0.6901     5.1672    23.6833 </r>
       <r>     0.7542     5.0998    24.0102 </r>
       <r>     0.8183     5.0309    24.3326 </r>
       <r>     0.8824     4.9596    24.6504 </r>
       <r>     0.9464     4.8914    24.9639 </r>
       <r>     1.0105     4.8273    25.2733 </r>
       <r>     1.0746     4.7615    25.5785 </r>
       <r>     1.1387     4.6928    25.8792 </r>
       <r>     1.2028     4.6284    26.1759 </r>
       <r>     1.2669     4.5695    26.4687 </r>
       <r>     1.3310     4.5044    26.7574 </r>
       <r>     1.3951     4.4279    27.0412 </r>
       <r>     1.4592     4.3545    27.3203 </r>
       <r>     1.5233     4.2999    27.5958 </r>
       <r>     1.5873     4.2549    27.8685 </r>
       <r>     1.6514     4.1947    28.1374 </r>
       <r>     1.7155     4.1141    28.4010 </r>
       <r>     1.7796     4.0356    28.6597 </r>
       <r>     1.8437     3.9767    28.9145 </r>
       <r>     1.9078     3.9188    29.1657 </r>
       <r>     1.9719     3.8219    29.4106 </r>
       <r>     2.0360     3.6669    29.6456 </r>
       <r>     2.1001     3.4675    29.8679 </r>
       <r>     2.1641     3.2432    30.0757 </r>
       <r>     2.2282     2.9975    30.2678 </r>
       <r>     2.2923     2.7334    30.4430 </r>
       <r>     2.3564     2.4729    30.6015 </r>
       <r>     2.4205     2.2439    30.7453 </r>
       <r>     2.4846     2.0537    30.8769 </r>
       <r>     2.5487     1.8883    30.9980 </r>
       <r>     2.6128     1.7358    31.1092 </r>
       <r>     2.6769     1.5970    31.2116 </r>
       <r>     2.7410     1.4744    31.3060 </r>
       <r>     2.8050     1.3620    31.3933 </r>
       <r>     2.8691     1.2516    31.4736 </r>
       <r>     2.9332     1.1426    31.5468 </r>
       <r>     2.9973     1.0409    31.6135 </r>
       <r>     3.0614     0.9501    31.6744 </r>
       <r>     3.1255     0.8674    31.7300 </r>
       <r>     3.1896     0.7886    31.7805 </r>
       <r>     3.2537     0.7149    31.8263 </r>
       <r>     3.3178     0.6554    31.8683 </r>
       <r>     3.3818     0.6235    31.9083 </r>
       <r>     3.4459     0.6297    31.9486 </r>
       <r>     3.5100     0.6764    31.9920 </r>
       <r>     3.5741     0.7574    32.0405 </r>
       <r>     3.6382     0.8615    32.0957 </r>
       <r>     3.7023     0.9785    32.1585 </r>
       <r>     3.7664     1.1052    32.2293 </r>
       <r>     3.8305     1.2454    32.3091 </r>
       <r>     3.8946     1.4009    32.3989 </r>
       <r>     3.9586     1.5662    32.4993 </r>
       <r>     4.0227     1.7324    32.6103 </r>
       <r>     4.0868     1.8982    32.7319 </r>
       <r>     4.1509     2.0717    32.8647 </r>
       <r>     4.2150     2.2612    33.0096 </r>
       <r>     4.2791     2.4631    33.1675 </r>
       <r>     4.3432     2.6622    33.3381 </r>
       <r>     4.4073     2.8462    33.5205 </r>
       <r>     4.4714     3.0185    33.7140 </r>
       <r>     4.5355     3.1962    33.9188 </r>
       <r>     4.5995     3.3981    34.1366 </r>
       <r>     4.6636     3.6371    34.3697 </r>
       <r>     4.7277     3.9167    34.6207 </r>
       <r>     4.7918     4.2254    34.8915 </r>
       <r>     4.8559     4.5365    35.1823 </r>
       <r>     4.9200     4.8156    35.4909 </r>
       <r>     4.9841     5.0301    35.8133 </r>
       <r>     5.0482     5.1521    36.1435 </r>
       <r>     5.1123     5.1656    36.4745 </r>
       <r>     5.1763     5.0773    36.7999 </r>
       <r>     5.2404     4.9139    37.1149 </r>
       <r>     5.3045     4.7015    37.4162 </r>
       <r>     5.3686     4.4515    37.7015 </r>
       <r>     5.4327     4.1704    37.9688 </r>
       <r>     5.4968     3.8736    38.2170 </r>
       <r>     5.5609     3.5788    38.4464 </r>
       <r>     5.6250     3.2909    38.6573 </r>
       <r>     5.6891     3.0036    38.8498 </r>
       <r>     5.7531     2.7138    39.0237 </r>
       <r>     5.8172     2.4294    39.1794 </r>
       <r>     5.8813     2.1625    39.3180 </r>
       <r>     5.9454     1.9222    39.4412 </r>
       <r>     6.0095     1.7114    39.5509 </r>
       <r>     6.0736     1.5258    39.6487 </r>
       <r>     6.1377     1.3525    39.7353 </r>
       <r>     6.2018     1.1730    39.8105 </r>
       <r>     6.2659     0.9741    39.8729 </r>
       <r>     6.3300     0.7565    39.9214 </r>
       <r>     6.3940     0.5376    39.9559 </r>
       <r>     6.4581     0.3427    39.9778 </r>
       <r>     6.5222     0.1926    39.9902 </r>
       <r>     6.5863     0.0941    39.9962 </r>
       <r>     6.6504     0.0395    39.9987 </r>
       <r>     6.7145     0.0141    39.9996 </r>
       <r>     6.7786     0.0042    39.9999 </r>
       <r>     6.8427     0.0011    40.0000 </r>
       <r>     6.9068     0.0002    40.0000 </r>
       <r>     6.9708     0.0000    40.0000 </r>
       <r>     7.0349     0.0000    40.0000 </r>
       <r>     7.0990     0.0000    40.0000 </r>
       <r>     7.1631     0.0000    40.0000 </r>
       <r>     7.2272     0.0000    40.0000 </r>
       <r>     7.2913     0.0000    40.0000 </r>
       <r>     7.3554     0.0000    40.0000 </r>
       <r>     7.4195     0.0000    40.0000 </r>
       <r>     7.4836     0.0000    40.0000 </r>
       <r>     7.5476     0.0000    40.0000 </r>
       <r>     7.6117     0.0000    40.0000 </r>
       <r>     7.6758     0.0000    40.0000 </r>
       <r>     7.7399     0.0000    40.0000 </r>
       <r>     7.8040     0.0000    40.0000 </r>
       <r>     7.8681     0.0000    40.0000 </r>
       <r>     7.9322     0.0000    40.0000 </r>
       <r>     7.9963     0.0000    40.0000 </r>
       <r>     8.0604     0.0000    40.0000 </r>
       <r>     8.1245     0.0000    40.0000 </r>
       <r>     8.1885     0.0000    40.0000 </r>
       <r>     8.2526     0.0000    40.0000 </r>
       <r>     8.3167     0.0000    40.0000 </r>
       <r>     8.3808     0.0000    40.0000 </r>
      </set>
     </set>
    </array>
   </total>
  </dos>
 </calculation>
 <structure name="finalpos" >
  <crystal>
   <varray name="basis" >
    <v>       5.76286300       0.00000000       0.00000000 </v>
    <v>       0.00000000       5.76286300       0.00000000 </v>
    <v>       0.00000000       0.00000000       5.76286300 </v>
   </varray>
   <i name="volume">    191.38808007 </i>
   <varray name="rec_basis" >
    <v>       0.17352486       0.00000000       0.00000000 </v>
    <v>       0.00000000       0.17352486       0.00000000 </v>
    <v>       0.00000000       0.00000000       0.17352486 </v>
   </varray>
  </crystal>
  <varray name="positions" >
   <v>       0.75000000       0.75000000       0.75000000 </v>
   <v>       0.50000000       0.00000000       0.00000000 </v>
   <v>       0.75000000       0.25000000       0.25000000 </v>
   <v>       0.50000000       0.50000000       0.50000000 </v>
   <v>       0.25000000       0.75000000       0.25000000 </v>
   <v>       0.00000000       0.00000000       0.50000000 </v>
   <v>       0.25000000       0.25000000       0.75000000 </v>
   <v>       0.00000000       0.50000000       0.00000000 </v>
  </varray>
 </structure>
</modeling>
