   8   8   0   0
  0.2392351E+02  0.5762863E-09  0.5762863E-09  0.5762863E-09  0.5000000E-15
  1.000000000000000E-004
  CAR 
 unknown system                          
      8.20213630    -10.76982076  301      0.73045566      1.00000000
    -10.770  0.0000E+00  0.0000E+00
    -10.707  0.0000E+00  0.0000E+00
    -10.643  0.0000E+00  0.0000E+00
    -10.580  0.0000E+00  0.0000E+00
    -10.517  0.0000E+00  0.0000E+00
    -10.454  0.0000E+00  0.0000E+00
    -10.390  0.0000E+00  0.0000E+00
    -10.327  0.0000E+00  0.0000E+00
    -10.264  0.0000E+00  0.0000E+00
    -10.201  0.0000E+00  0.0000E+00
    -10.137  0.0000E+00  0.0000E+00
    -10.074  0.0000E+00  0.0000E+00
    -10.011  0.0000E+00  0.0000E+00
     -9.948  0.6502E-16  0.4112E-17
     -9.884  0.1821E-14  0.1192E-15
     -9.821  0.5956E-13  0.3886E-14
     -9.758  0.1579E-11  0.1037E-12
     -9.695  0.3434E-10  0.2276E-11
     -9.632  0.6130E-09  0.4104E-10
     -9.568  0.8978E-08  0.6088E-09
     -9.505  0.1079E-06  0.7435E-08
     -9.442  0.1065E-05  0.7480E-07
     -9.379  0.8632E-05  0.6207E-06
     -9.315  0.5744E-04  0.4253E-05
     -9.252  0.3141E-03  0.2411E-04
     -9.189  0.1412E-02  0.1134E-03
     -9.126  0.5226E-02  0.4439E-03
     -9.062  0.1597E-01  0.1454E-02
     -8.999  0.4052E-01  0.4016E-02
     -8.936  0.8620E-01  0.9467E-02
     -8.873  0.1566E+00  0.1937E-01
     -8.809  0.2502E+00  0.3520E-01
     -8.746  0.3641E+00  0.5822E-01
     -8.683  0.4970E+00  0.8965E-01
     -8.620  0.6418E+00  0.1302E+00
     -8.556  0.7772E+00  0.1794E+00
     -8.493  0.8790E+00  0.2350E+00
     -8.430  0.9418E+00  0.2945E+00
     -8.367  0.9817E+00  0.3566E+00
     -8.303  0.1020E+01  0.4211E+00
     -8.240  0.1073E+01  0.4890E+00
     -8.177  0.1151E+01  0.5618E+00
     -8.114  0.1259E+01  0.6414E+00
     -8.051  0.1391E+01  0.7294E+00
     -7.987  0.1533E+01  0.8264E+00
     -7.924  0.1658E+01  0.9312E+00
     -7.861  0.1724E+01  0.1040E+01
     -7.798  0.1695E+01  0.1147E+01
     -7.734  0.1581E+01  0.1247E+01
     -7.671  0.1451E+01  0.1339E+01
     -7.608  0.1391E+01  0.1427E+01
     -7.545  0.1461E+01  0.1520E+01
     -7.481  0.1668E+01  0.1625E+01
     -7.418  0.1966E+01  0.1749E+01
     -7.355  0.2278E+01  0.1893E+01
     -7.292  0.2522E+01  0.2053E+01
     -7.228  0.2628E+01  0.2219E+01
     -7.165  0.2563E+01  0.2381E+01
     -7.102  0.2369E+01  0.2531E+01
     -7.039  0.2164E+01  0.2668E+01
     -6.975  0.2084E+01  0.2800E+01
     -6.912  0.2195E+01  0.2938E+01
     -6.849  0.2458E+01  0.3094E+01
     -6.786  0.2750E+01  0.3268E+01
     -6.722  0.2947E+01  0.3454E+01
     -6.659  0.2997E+01  0.3644E+01
     -6.596  0.2960E+01  0.3831E+01
     -6.533  0.2960E+01  0.4018E+01
     -6.470  0.3103E+01  0.4214E+01
     -6.406  0.3403E+01  0.4429E+01
     -6.343  0.3757E+01  0.4667E+01
     -6.280  0.4018E+01  0.4921E+01
     -6.217  0.4097E+01  0.5180E+01
     -6.153  0.3984E+01  0.5432E+01
     -6.090  0.3684E+01  0.5665E+01
     -6.027  0.3192E+01  0.5867E+01
     -5.964  0.2559E+01  0.6029E+01
     -5.900  0.1947E+01  0.6152E+01
     -5.837  0.1546E+01  0.6250E+01
     -5.774  0.1427E+01  0.6340E+01
     -5.711  0.1506E+01  0.6435E+01
     -5.647  0.1653E+01  0.6540E+01
     -5.584  0.1837E+01  0.6656E+01
     -5.521  0.2117E+01  0.6790E+01
     -5.458  0.2524E+01  0.6949E+01
     -5.394  0.2956E+01  0.7136E+01
     -5.331  0.3214E+01  0.7340E+01
     -5.268  0.3135E+01  0.7538E+01
     -5.205  0.2698E+01  0.7709E+01
     -5.141  0.2026E+01  0.7837E+01
     -5.078  0.1314E+01  0.7920E+01
     -5.015  0.7294E+00  0.7966E+01
     -4.952  0.3431E+00  0.7988E+01
     -4.889  0.1357E+00  0.7996E+01
     -4.825  0.4492E-01  0.7999E+01
     -4.762  0.1265E-01  0.8000E+01
     -4.699  0.4711E-02  0.8000E+01
     -4.636  0.1008E-01  0.8001E+01
     -4.572  0.3954E-01  0.8003E+01
     -4.509  0.1342E+00  0.8012E+01
     -4.446  0.3760E+00  0.8036E+01
     -4.383  0.8685E+00  0.8090E+01
     -4.319  0.1658E+01  0.8195E+01
     -4.256  0.2625E+01  0.8361E+01
     -4.193  0.3476E+01  0.8581E+01
     -4.130  0.3921E+01  0.8829E+01
     -4.066  0.3920E+01  0.9077E+01
     -4.003  0.3735E+01  0.9313E+01
     -3.940  0.3673E+01  0.9545E+01
     -3.877  0.3796E+01  0.9786E+01
     -3.813  0.3884E+01  0.1003E+02
     -3.750  0.3702E+01  0.1027E+02
     -3.687  0.3282E+01  0.1047E+02
     -3.624  0.2928E+01  0.1066E+02
     -3.560  0.2943E+01  0.1084E+02
     -3.497  0.3335E+01  0.1106E+02
     -3.434  0.3783E+01  0.1129E+02
     -3.371  0.3891E+01  0.1154E+02
     -3.308  0.3512E+01  0.1176E+02
     -3.244  0.2845E+01  0.1194E+02
     -3.181  0.2230E+01  0.1208E+02
     -3.118  0.1875E+01  0.1220E+02
     -3.055  0.1768E+01  0.1231E+02
     -2.991  0.1813E+01  0.1243E+02
     -2.928  0.1977E+01  0.1255E+02
     -2.865  0.2286E+01  0.1270E+02
     -2.802  0.2688E+01  0.1287E+02
     -2.738  0.2984E+01  0.1306E+02
     -2.675  0.2940E+01  0.1324E+02
     -2.612  0.2483E+01  0.1340E+02
     -2.549  0.1766E+01  0.1351E+02
     -2.485  0.1050E+01  0.1358E+02
     -2.422  0.5241E+00  0.1361E+02
     -2.359  0.2397E+00  0.1363E+02
     -2.296  0.1630E+00  0.1364E+02
     -2.232  0.2627E+00  0.1365E+02
     -2.169  0.5405E+00  0.1369E+02
     -2.106  0.9916E+00  0.1375E+02
     -2.043  0.1543E+01  0.1385E+02
     -1.979  0.2031E+01  0.1398E+02
     -1.916  0.2272E+01  0.1412E+02
     -1.853  0.2164E+01  0.1426E+02
     -1.790  0.1763E+01  0.1437E+02
     -1.727  0.1252E+01  0.1445E+02
     -1.663  0.8327E+00  0.1450E+02
     -1.600  0.6302E+00  0.1454E+02
     -1.537  0.6584E+00  0.1458E+02
     -1.474  0.8657E+00  0.1464E+02
     -1.410  0.1203E+01  0.1471E+02
     -1.347  0.1660E+01  0.1482E+02
     -1.284  0.2233E+01  0.1496E+02
     -1.221  0.2889E+01  0.1514E+02
     -1.157  0.3562E+01  0.1537E+02
     -1.094  0.4179E+01  0.1563E+02
     -1.031  0.4650E+01  0.1592E+02
     -0.968  0.4860E+01  0.1623E+02
     -0.904  0.4718E+01  0.1653E+02
     -0.841  0.4260E+01  0.1680E+02
     -0.778  0.3672E+01  0.1703E+02
     -0.715  0.3204E+01  0.1723E+02
     -0.651  0.3066E+01  0.1743E+02
     -0.588  0.3346E+01  0.1764E+02
     -0.525  0.3944E+01  0.1789E+02
     -0.462  0.4575E+01  0.1818E+02
     -0.398  0.4915E+01  0.1849E+02
     -0.335  0.4820E+01  0.1879E+02
     -0.272  0.4408E+01  0.1907E+02
     -0.209  0.3931E+01  0.1932E+02
     -0.146  0.3603E+01  0.1955E+02
     -0.082  0.3553E+01  0.1977E+02
     -0.019  0.3839E+01  0.2002E+02
      0.044  0.4408E+01  0.2030E+02
      0.107  0.5041E+01  0.2061E+02
      0.171  0.5435E+01  0.2096E+02
      0.234  0.5426E+01  0.2130E+02
      0.297  0.5165E+01  0.2163E+02
      0.360  0.5000E+01  0.2194E+02
      0.424  0.5166E+01  0.2227E+02
      0.487  0.5569E+01  0.2262E+02
      0.550  0.5894E+01  0.2300E+02
      0.613  0.5902E+01  0.2337E+02
      0.677  0.5588E+01  0.2372E+02
      0.740  0.5120E+01  0.2405E+02
      0.803  0.4702E+01  0.2434E+02
      0.866  0.4492E+01  0.2463E+02
      0.930  0.4518E+01  0.2491E+02
      0.993  0.4638E+01  0.2521E+02
      1.056  0.4653E+01  0.2550E+02
      1.119  0.4503E+01  0.2579E+02
      1.183  0.4317E+01  0.2606E+02
      1.246  0.4243E+01  0.2633E+02
      1.309  0.4282E+01  0.2660E+02
      1.372  0.4335E+01  0.2687E+02
      1.435  0.4369E+01  0.2715E+02
      1.499  0.4465E+01  0.2743E+02
      1.562  0.4690E+01  0.2773E+02
      1.625  0.4971E+01  0.2804E+02
      1.688  0.5124E+01  0.2837E+02
      1.752  0.5019E+01  0.2868E+02
      1.815  0.4670E+01  0.2898E+02
      1.878  0.4179E+01  0.2924E+02
      1.941  0.3618E+01  0.2947E+02
      2.005  0.3017E+01  0.2966E+02
      2.068  0.2441E+01  0.2982E+02
      2.131  0.2031E+01  0.2994E+02
      2.194  0.1925E+01  0.3007E+02
      2.258  0.2149E+01  0.3020E+02
      2.321  0.2558E+01  0.3036E+02
      2.384  0.2903E+01  0.3055E+02
      2.447  0.2990E+01  0.3074E+02
      2.511  0.2804E+01  0.3091E+02
      2.574  0.2482E+01  0.3107E+02
      2.637  0.2163E+01  0.3121E+02
      2.700  0.1881E+01  0.3133E+02
      2.764  0.1594E+01  0.3143E+02
      2.827  0.1270E+01  0.3151E+02
      2.890  0.9392E+00  0.3157E+02
      2.953  0.6777E+00  0.3161E+02
      3.016  0.5485E+00  0.3165E+02
      3.080  0.5543E+00  0.3168E+02
      3.143  0.6310E+00  0.3172E+02
      3.206  0.6930E+00  0.3176E+02
      3.269  0.6982E+00  0.3181E+02
      3.333  0.6717E+00  0.3185E+02
      3.396  0.6713E+00  0.3189E+02
      3.459  0.7350E+00  0.3194E+02
      3.522  0.8633E+00  0.3199E+02
      3.586  0.1030E+01  0.3206E+02
      3.649  0.1188E+01  0.3213E+02
      3.712  0.1280E+01  0.3222E+02
      3.775  0.1274E+01  0.3230E+02
      3.839  0.1203E+01  0.3237E+02
      3.902  0.1167E+01  0.3245E+02
      3.965  0.1257E+01  0.3253E+02
      4.028  0.1466E+01  0.3262E+02
      4.092  0.1694E+01  0.3273E+02
      4.155  0.1850E+01  0.3284E+02
      4.218  0.1958E+01  0.3297E+02
      4.281  0.2123E+01  0.3310E+02
      4.345  0.2412E+01  0.3325E+02
      4.408  0.2787E+01  0.3343E+02
      4.471  0.3181E+01  0.3363E+02
      4.534  0.3582E+01  0.3386E+02
      4.597  0.4003E+01  0.3411E+02
      4.661  0.4397E+01  0.3439E+02
      4.724  0.4677E+01  0.3468E+02
      4.787  0.4822E+01  0.3499E+02
      4.850  0.4917E+01  0.3530E+02
      4.914  0.5046E+01  0.3562E+02
      4.977  0.5168E+01  0.3595E+02
      5.040  0.5152E+01  0.3627E+02
      5.103  0.4938E+01  0.3658E+02
      5.167  0.4624E+01  0.3688E+02
      5.230  0.4369E+01  0.3715E+02
      5.293  0.4227E+01  0.3742E+02
      5.356  0.4135E+01  0.3768E+02
      5.420  0.4014E+01  0.3793E+02
      5.483  0.3833E+01  0.3818E+02
      5.546  0.3563E+01  0.3840E+02
      5.609  0.3185E+01  0.3860E+02
      5.673  0.2747E+01  0.3878E+02
      5.736  0.2366E+01  0.3893E+02
      5.799  0.2122E+01  0.3906E+02
      5.862  0.1988E+01  0.3919E+02
      5.926  0.1879E+01  0.3931E+02
      5.989  0.1761E+01  0.3942E+02
      6.052  0.1667E+01  0.3952E+02
      6.115  0.1624E+01  0.3963E+02
      6.178  0.1585E+01  0.3973E+02
      6.242  0.1457E+01  0.3982E+02
      6.305  0.1189E+01  0.3989E+02
      6.368  0.8299E+00  0.3995E+02
      6.431  0.4854E+00  0.3998E+02
      6.495  0.2356E+00  0.3999E+02
      6.558  0.9436E-01  0.4000E+02
      6.621  0.3112E-01  0.4000E+02
      6.684  0.8441E-02  0.4000E+02
      6.748  0.1881E-02  0.4000E+02
      6.811  0.3444E-03  0.4000E+02
      6.874  0.5177E-04  0.4000E+02
      6.937  0.6391E-05  0.4000E+02
      7.001  0.6476E-06  0.4000E+02
      7.064  0.5387E-07  0.4000E+02
      7.127  0.3678E-08  0.4000E+02
      7.190  0.2061E-09  0.4000E+02
      7.254  0.9474E-11  0.4000E+02
      7.317  0.3574E-12  0.4000E+02
      7.380  0.1092E-13  0.4000E+02
      7.443  0.0000E+00  0.4000E+02
      7.506  0.0000E+00  0.4000E+02
      7.570  0.0000E+00  0.4000E+02
      7.633  0.0000E+00  0.4000E+02
      7.696  0.0000E+00  0.4000E+02
      7.759  0.0000E+00  0.4000E+02
      7.823  0.0000E+00  0.4000E+02
      7.886  0.0000E+00  0.4000E+02
      7.949  0.0000E+00  0.4000E+02
      8.012  0.0000E+00  0.4000E+02
      8.076  0.0000E+00  0.4000E+02
      8.139  0.0000E+00  0.4000E+02
      8.202  0.0000E+00  0.4000E+02
