    8    8    1    1
  0.2392351E+02  0.5762863E-09  0.5762863E-09  0.5762863E-09  0.5000000E-15
  1.000000000000000E-004
  CAR 
 unknown system                          
   24   10   20
 
  0.8333333E-01  0.8333333E-01  0.8333333E-01  0.3703704E-01
   1       -8.769821
   2       -5.429310
   3       -5.429310
   4       -5.429310
   5       -4.183460
   6       -4.183460
   7       -4.183460
   8       -0.116268
   9       -0.116267
  10       -0.116267
  11        0.312220
  12        0.312220
  13        0.312220
  14        2.429701
  15        3.463998
  16        3.463999
  17        3.658590
  18        3.658590
  19        3.658591
  20        4.250712
 
  0.2500000E+00  0.8333333E-01  0.8333333E-01  0.1111111E+00
   1       -8.539600
   2       -6.511023
   3       -5.337404
   4       -5.337404
   5       -4.176191
   6       -4.176191
   7       -2.833732
   8       -0.718549
   9       -0.718549
  10        0.109177
  11        0.109177
  12        0.182616
  13        0.560939
  14        1.196556
  15        2.627225
  16        2.787338
  17        3.771374
  18        4.421156
  19        4.421167
  20        4.726714
 
  0.4166667E+00  0.8333333E-01  0.8333333E-01  0.1111111E+00
   1       -8.081651
   2       -7.401787
   3       -5.230376
   4       -5.230376
   5       -4.184999
   6       -4.184999
   7       -1.447360
   8       -1.060950
   9       -1.060950
  10       -0.236005
  11       -0.236005
  12       -0.097718
  13        0.787222
  14        1.049487
  15        1.689836
  16        1.756027
  17        4.093268
  18        4.631531
  19        5.554625
  20        5.986234
 
  0.2500000E+00  0.2500000E+00  0.8333333E-01  0.1111111E+00
   1       -8.312975
   2       -6.344565
   3       -6.344565
   4       -5.436190
   5       -4.092267
   6       -3.060681
   7       -3.060681
   8       -1.194081
   9       -0.379774
  10       -0.379774
  11        0.116073
  12        0.491035
  13        0.491035
  14        0.737641
  15        1.869260
  16        3.176849
  17        4.097866
  18        4.640391
  19        4.640391
  20        5.280542
 
  0.4166667E+00  0.2500000E+00  0.8333333E-01  0.2222222E+00
   1       -7.863650
   2       -7.201106
   3       -6.045355
   4       -5.697090
   5       -3.845119
   6       -3.452865
   7       -1.995899
   8       -1.224090
   9       -0.960762
  10       -0.894235
  11        0.214208
  12        0.490649
  13        0.716710
  14        0.980058
  15        1.287249
  16        2.364651
  17        5.026007
  18        5.061389
  19        5.565362
  20        6.202136
 
  0.4166667E+00  0.4166667E+00  0.8333333E-01  0.1111111E+00
   1       -7.435255
   2       -6.815454
   3       -6.815454
   4       -6.285105
   5       -3.339290
   6       -2.699317
   7       -2.699317
   8       -1.874903
   9       -0.998862
  10       -0.475103
  11       -0.475103
  12        0.173582
  13        1.514720
  14        1.581323
  15        1.581323
  16        2.448147
  17        4.840270
  18        5.495189
  19        5.827892
  20        5.827919
 
  0.2500000E+00  0.2500000E+00  0.2500000E+00  0.3703704E-01
   1       -8.091636
   2       -6.235254
   3       -6.235254
   4       -6.235254
   5       -3.421432
   6       -3.421432
   7       -3.421432
   8       -0.907953
   9       -0.495308
  10       -0.495308
  11       -0.495308
  12        0.960852
  13        0.960852
  14        0.960852
  15        2.658186
  16        2.658186
  17        4.379481
  18        4.379481
  19        4.379481
  20        4.450498
 
  0.4166667E+00  0.2500000E+00  0.2500000E+00  0.1111111E+00
   1       -7.655661
   2       -7.022617
   3       -6.105247
   4       -6.105247
   5       -3.771573
   6       -3.771573
   7       -2.701657
   8       -1.877471
   9       -0.435859
  10       -0.435859
  11        0.660710
  12        1.028597
  13        1.028597
  14        1.391308
  15        1.943167
  16        1.988375
  17        4.878024
  18        4.977151
  19        5.256080
  20        5.256081
 
  0.4166667E+00  0.4166667E+00  0.2500000E+00  0.1111111E+00
   1       -7.254375
   2       -6.701565
   3       -6.701565
   4       -6.338804
   5       -3.804831
   6       -3.396779
   7       -3.396779
   8       -2.743419
   9        0.064413
  10        0.519699
  11        0.519699
  12        1.316020
  13        1.657986
  14        1.695018
  15        1.695018
  16        2.363264
  17        4.785722
  18        4.984172
  19        5.352815
  20        5.352820
 
  0.4166667E+00  0.4166667E+00  0.4166667E+00  0.3703704E-01
   1       -6.929523
   2       -6.565763
   3       -6.565763
   4       -6.565763
   5       -3.907112
   6       -3.907112
   7       -3.907112
   8       -3.500374
   9        1.376183
  10        1.376183
  11        1.376183
  12        1.904101
  13        1.904101
  14        1.904101
  15        2.170534
  16        2.170534
  17        4.042169
  18        4.669477
  19        4.669477
  20        4.669479
