 running on   20 total cores
 distrk:  each k-point on   20 cores,    1 groups
 distr:  one band on    1 cores,   20 groups
 using from now: INCAR     
 vasp.5.3.3 18Dez12 (build Dec 13 2014 13:36:02) complex                        
  
 POSCAR found type information on POSCAR  Ga
 POSCAR found :  1 types and       8 ions
 scaLAPACK will be used

 ----------------------------------------------------------------------------- 
|                                                                             |
|           W    W    AA    RRRRR   N    N  II  N    N   GGGG   !!!           |
|           W    W   A  A   R    R  NN   N  II  NN   N  G    G  !!!           |
|           W    W  A    A  R    R  N N  N  II  N N  N  G       !!!           |
|           W WW W  AAAAAA  RRRRR   N  N N  II  N  N N  G  GGG   !            |
|           WW  WW  A    A  R   R   N   NN  II  N   NN  G    G                |
|           W    W  A    A  R    R  N    N  II  N    N   GGGG   !!!           |
|                                                                             |
|      For optimal performance we recommend that you set                      |
|        NPAR = 4 - approx SQRT( number of cores)                             |
|      (number of cores/NPAR must be integer)                                 |
|      This setting will greatly improve the performance of VASP for DFT.     |
|      The default NPAR=number of cores might be grossly inefficient          |
|      on modern multi-core architectures or massively parallel machines.     |
|      Do your own testing.                                                   |
|      Unfortunately you need to use the default for hybrid, GW and RPA       |
|      calculations.                                                          |
|                                                                             |
 ----------------------------------------------------------------------------- 

 LDA part: xc-table for Pade appr. of Perdew
 POSCAR, INCAR and KPOINTS ok, starting setup
 WARNING: small aliasing (wrap around) errors must be expected
 FFT: planning ...
 WAVECAR not read
 entering main loop
       N       E                     dE             d eps       ncg     rms          rms(c)
DAV:   1     0.753737180151E+02    0.75374E+02   -0.10344E+04   400   0.118E+03
DAV:   2    -0.191494978090E+02   -0.94523E+02   -0.94255E+02   660   0.107E+02
DAV:   3    -0.210479461981E+02   -0.18984E+01   -0.18919E+01   460   0.216E+01
DAV:   4    -0.210553426514E+02   -0.73965E-02   -0.73960E-02   720   0.131E+00
DAV:   5    -0.210553438168E+02   -0.11654E-05   -0.11654E-05   460   0.137E-02    0.279E+00
RMM:   6    -0.209726967191E+02    0.82647E-01   -0.13522E-02   400   0.105E+00    0.173E+00
RMM:   7    -0.209301559616E+02    0.42541E-01   -0.35985E-02   401   0.166E+00    0.987E-02
RMM:   8    -0.209304203554E+02   -0.26439E-03   -0.52798E-04   367   0.131E-01    0.197E-02
RMM:   9    -0.209304583556E+02   -0.38000E-04   -0.70998E-05   268   0.500E-02
   1 F= -.20930458E+02 E0= -.20880938E+02  d E =-.990404E-01
