<?xml version="1.0" encoding="ISO-8859-1"?>
<modeling>
 <generator>
  <i name="program" type="string">vasp </i>
  <i name="version" type="string">5.3.3  </i>
  <i name="subversion" type="string">18Dez12 (build Dec 13 2014 13:36:02) complex                          parallel </i>
  <i name="platform" type="string">LinuxIFC </i>
  <i name="date" type="string">2018 11 27 </i>
  <i name="time" type="string">23:21:43 </i>
 </generator>
 <incar>
  <i type="string" name="PREC">normal</i>
  <i type="string" name="ALGO"> Fast</i>
  <i type="int" name="ISPIN">     1</i>
  <i type="int" name="IBRION">    -1</i>
  <i type="int" name="NSW">     0</i>
  <i type="int" name="ISYM">     1</i>
  <i name="ENCUT">    700.00000000</i>
  <i type="int" name="ISMEAR">     0</i>
  <i name="SIGMA">      0.20000000</i>
  <i type="logical" name="LWAVE"> F  </i>
  <i type="logical" name="LCHARG"> F  </i>
 </incar>
 <kpoints>
  <generation param="Monkhorst-Pack">
   <v type="int" name="divisions">       6        6        6 </v>
   <v name="usershift">      0.00000000       0.00000000       0.00000000 </v>
   <v name="genvec1">      0.16666667       0.00000000       0.00000000 </v>
   <v name="genvec2">      0.00000000       0.16666667       0.00000000 </v>
   <v name="genvec3">      0.00000000       0.00000000       0.16666667 </v>
   <v name="shift">      0.50000000       0.50000000       0.50000000 </v>
  </generation>
  <varray name="kpointlist" >
   <v>       0.08333333       0.08333333       0.08333333 </v>
   <v>       0.25000000       0.08333333       0.08333333 </v>
   <v>       0.41666667       0.08333333       0.08333333 </v>
   <v>       0.25000000       0.25000000       0.08333333 </v>
   <v>       0.41666667       0.25000000       0.08333333 </v>
   <v>       0.41666667       0.41666667       0.08333333 </v>
   <v>       0.25000000       0.25000000       0.25000000 </v>
   <v>       0.41666667       0.25000000       0.25000000 </v>
   <v>       0.41666667       0.41666667       0.25000000 </v>
   <v>       0.41666667       0.41666667       0.41666667 </v>
  </varray>
  <varray name="weights" >
   <v>       0.03703704 </v>
   <v>       0.11111111 </v>
   <v>       0.11111111 </v>
   <v>       0.11111111 </v>
   <v>       0.22222222 </v>
   <v>       0.11111111 </v>
   <v>       0.03703704 </v>
   <v>       0.11111111 </v>
   <v>       0.11111111 </v>
   <v>       0.03703704 </v>
  </varray>
 </kpoints>
 <parameters>
  <separator name="general" >
   <i type="string" name="SYSTEM">unknown system</i>
   <i type="logical" name="LCOMPAT"> F  </i>
  </separator>
  <separator name="electronic" >
   <i type="string" name="PREC">normal</i>
   <i name="ENMAX">    700.00000000</i>
   <i name="ENAUG">    320.26400000</i>
   <i name="EDIFF">      0.00010000</i>
   <i type="int" name="IALGO">    68</i>
   <i type="int" name="IWAVPR">    10</i>
   <i type="int" name="NBANDS">    20</i>
   <i name="NELECT">     24.00000000</i>
   <i type="int" name="TURBO">     0</i>
   <i type="int" name="IRESTART">     0</i>
   <i type="int" name="NREBOOT">     0</i>
   <i type="int" name="NMIN">     0</i>
   <i name="EREF">      0.00000000</i>
   <separator name="electronic smearing" >
    <i type="int" name="ISMEAR">     0</i>
    <i name="SIGMA">      0.20000000</i>
    <i name="KSPACING">      0.50000000</i>
    <i type="logical" name="KGAMMA"> T  </i>
   </separator>
   <separator name="electronic projectors" >
    <i type="logical" name="LREAL"> F  </i>
    <v name="ROPT">      0.00000000</v>
    <i type="int" name="LMAXPAW">  -100</i>
    <i type="int" name="LMAXMIX">     2</i>
    <i type="logical" name="NLSPLINE"> F  </i>
   </separator>
   <separator name="electronic startup" >
    <i type="int" name="ISTART">     0</i>
    <i type="int" name="ICHARG">     2</i>
    <i type="int" name="INIWAV">     1</i>
   </separator>
   <separator name="electronic spin" >
    <i type="int" name="ISPIN">     1</i>
    <i type="logical" name="LNONCOLLINEAR"> F  </i>
    <v name="MAGMOM">      1.00000000      1.00000000      1.00000000      1.00000000      1.00000000      1.00000000      1.00000000      1.00000000</v>
    <i name="NUPDOWN">     -1.00000000</i>
    <i type="logical" name="LSORBIT"> F  </i>
    <v name="SAXIS">      0.00000000      0.00000000      1.00000000</v>
    <i type="logical" name="LSPIRAL"> F  </i>
    <v name="QSPIRAL">      0.00000000      0.00000000      0.00000000</v>
    <i type="logical" name="LZEROZ"> F  </i>
   </separator>
   <separator name="electronic exchange-correlation" >
    <i type="logical" name="LASPH"> F  </i>
    <i type="logical" name="LMETAGGA"> F  </i>
   </separator>
   <separator name="electronic convergence" >
    <i type="int" name="NELM">    60</i>
    <i type="int" name="NELMDL">    -5</i>
    <i type="int" name="NELMIN">     2</i>
    <i name="ENINI">    700.00000000</i>
    <separator name="electronic convergence detail" >
     <i type="logical" name="LDIAG"> T  </i>
     <i type="logical" name="LSUBROT"> T  </i>
     <i name="WEIMIN">      0.00000000</i>
     <i name="EBREAK">      0.00000125</i>
     <i name="DEPER">      0.30000000</i>
     <i type="int" name="NRMM">     4</i>
     <i name="TIME">      0.40000000</i>
    </separator>
   </separator>
   <separator name="electronic mixer" >
    <i name="AMIX">      0.40000000</i>
    <i name="BMIX">      1.00000000</i>
    <i name="AMIN">      0.10000000</i>
    <i name="AMIX_MAG">      1.60000000</i>
    <i name="BMIX_MAG">      1.00000000</i>
    <separator name="electronic mixer details" >
     <i type="int" name="IMIX">     4</i>
     <i type="int" name="MAXMIX">   -45</i>
     <i name="WC">    100.00000000</i>
     <i type="int" name="INIMIX">     1</i>
     <i type="int" name="MIXPRE">     1</i>
     <i type="int" name="MREMOVE">     5</i>
    </separator>
   </separator>
   <separator name="electronic dipolcorrection" >
    <i type="logical" name="LDIPOL"> F  </i>
    <i type="logical" name="LMONO"> F  </i>
    <i type="int" name="IDIPOL">     0</i>
    <i name="EPSILON">      1.00000000</i>
    <v name="DIPOL">   -100.00000000   -100.00000000   -100.00000000</v>
    <i name="EFIELD">      0.00000000</i>
   </separator>
  </separator>
  <separator name="grids" >
   <i type="int" name="NGX">    40</i>
   <i type="int" name="NGY">    40</i>
   <i type="int" name="NGZ">    40</i>
   <i type="int" name="NGXF">    80</i>
   <i type="int" name="NGYF">    80</i>
   <i type="int" name="NGZF">    80</i>
   <i type="logical" name="ADDGRID"> F  </i>
  </separator>
  <separator name="ionic" >
   <i type="int" name="NSW">     0</i>
   <i type="int" name="IBRION">    -1</i>
   <i type="int" name="ISIF">     2</i>
   <i name="PSTRESS">      0.00000000</i>
   <i name="EDIFFG">      0.00100000</i>
   <i type="int" name="NFREE">     0</i>
   <i name="POTIM">      0.50000000</i>
   <i name="SMASS">     -3.00000000</i>
   <i name="SCALEE">      1.00000000</i>
  </separator>
  <separator name="ionic md" >
   <i name="TEBEG">      0.00010000</i>
   <i name="TEEND">      0.00010000</i>
   <i type="int" name="NBLOCK">     1</i>
   <i type="int" name="KBLOCK">     1</i>
   <i type="int" name="NPACO">   256</i>
   <i name="APACO">     16.00000000</i>
  </separator>
  <separator name="symmetry" >
   <i type="int" name="ISYM">     1</i>
   <i name="SYMPREC">      0.00001000</i>
  </separator>
  <separator name="dos" >
   <i type="logical" name="LORBIT"> F  </i>
   <v name="RWIGS">     -1.00000000</v>
   <i type="int" name="NEDOS">   301</i>
   <i name="EMIN">     10.00000000</i>
   <i name="EMAX">    -10.00000000</i>
   <i name="EFERMI">      0.00000000</i>
  </separator>
  <separator name="writing" >
   <i type="int" name="NWRITE">     2</i>
   <i type="logical" name="LWAVE"> F  </i>
   <i type="logical" name="LCHARG"> F  </i>
   <i type="logical" name="LPARD"> F  </i>
   <i type="logical" name="LVTOT"> F  </i>
   <i type="logical" name="LVHAR"> F  </i>
   <i type="logical" name="LELF"> F  </i>
   <i type="logical" name="LOPTICS"> F  </i>
   <v name="STM">      0.00000000      0.00000000      0.00000000      0.00000000      0.00000000      0.00000000      0.00000000</v>
  </separator>
  <separator name="performance" >
   <i type="int" name="NPAR">    20</i>
   <i type="int" name="NSIM">     4</i>
   <i type="int" name="NBLK">    -1</i>
   <i type="logical" name="LPLANE"> T  </i>
   <i type="logical" name="LSCALAPACK"> T  </i>
   <i type="logical" name="LSCAAWARE"> F  </i>
   <i type="logical" name="LSCALU"> F  </i>
   <i type="logical" name="LASYNC"> F  </i>
   <i type="logical" name="LORBITALREAL"> F  </i>
  </separator>
  <separator name="miscellaneous" >
   <i type="int" name="IDIOT">     3</i>
   <i type="logical" name="LMUSIC"> F  </i>
   <v name="POMASS">     69.72300000</v>
   <v name="DARWINR">      0.00000000</v>
   <v name="DARWINV">      1.00000000</v>
   <i type="logical" name="LCORR"> T  </i>
  </separator>
  <i type="logical" name="GGA_COMPAT"> T  </i>
  <i type="logical" name="LBERRY"> F  </i>
  <i type="int" name="ICORELEVEL">     0</i>
  <i type="logical" name="LDAU"> F  </i>
  <i type="int" name="I_CONSTRAINED_M">     0</i>
  <separator name="electronic exchange-correlation" >
   <i type="string" name="GGA">--</i>
   <i type="int" name="VOSKOWN">     0</i>
   <i type="logical" name="LHFCALC"> F  </i>
   <i type="string" name="PRECFOCK"></i>
   <i type="logical" name="LSYMGRAD"> F  </i>
   <i type="logical" name="LHFONE"> F  </i>
   <i type="logical" name="LRHFCALC"> F  </i>
   <i type="logical" name="LTHOMAS"> F  </i>
   <i type="logical" name="LMODELHF"> F  </i>
   <i name="ENCUT4O">     -1.00000000</i>
   <i type="int" name="EXXOEP">     0</i>
   <i type="int" name="FOURORBIT">     0</i>
   <i name="AEXX">      0.00000000</i>
   <i name="HFALPHA">      0.00000000</i>
   <i name="MCALPHA">      0.00000000</i>
   <i name="ALDAX">      1.00000000</i>
   <i name="AGGAX">      1.00000000</i>
   <i name="ALDAC">      1.00000000</i>
   <i name="AGGAC">      1.00000000</i>
   <i type="int" name="NKREDX">     1</i>
   <i type="int" name="NKREDY">     1</i>
   <i type="int" name="NKREDZ">     1</i>
   <i type="logical" name="SHIFTRED"> F  </i>
   <i type="logical" name="ODDONLY"> F  </i>
   <i type="logical" name="EVENONLY"> F  </i>
   <i type="int" name="LMAXFOCK">     0</i>
   <i type="int" name="NMAXFOCKAE">     0</i>
   <i type="logical" name="LFOCKAEDFT"> F  </i>
   <i name="HFSCREEN">      0.00000000</i>
   <i name="HFSCREENC">      0.00000000</i>
   <i type="int" name="NBANDSGWLOW">     0</i>
  </separator>
  <separator name="vdW DFT" >
   <i type="logical" name="LUSE_VDW"> F  </i>
   <i name="Zab_VDW">     -0.84910000</i>
   <i name="PARAM1">      0.12340000</i>
   <i name="PARAM2">      1.00000000</i>
   <i name="PARAM3">      0.00000000</i>
  </separator>
  <separator name="model GW" >
   <i type="int" name="MODEL_GW">     0</i>
   <i name="MODEL_EPS0">     14.35410601</i>
   <i name="MODEL_ALPHA">      1.00000000</i>
  </separator>
  <separator name="linear response parameters" >
   <i type="logical" name="LEPSILON"> F  </i>
   <i type="logical" name="LRPA"> F  </i>
   <i type="logical" name="LNABLA"> F  </i>
   <i type="logical" name="LVEL"> F  </i>
   <i type="int" name="KINTER">     0</i>
   <i name="CSHIFT">      0.10000000</i>
   <i name="OMEGAMAX">     -1.00000000</i>
   <i name="DEG_THRESHOLD">      0.00200000</i>
  </separator>
  <separator name="orbital magnetization" >
   <i type="logical" name="NUCIND"> F  </i>
   <v name="MAGPOS">      0.00000000      0.00000000      0.00000000</v>
   <i type="logical" name="LNICSALL"> T  </i>
   <i type="logical" name="ORBITALMAG"> F  </i>
   <i type="logical" name="LMAGBLOCH"> F  </i>
   <i type="logical" name="LCHIMAG"> F  </i>
   <i type="logical" name="LGAUGE"> T  </i>
   <i type="int" name="MAGATOM">     0</i>
   <v name="MAGDIPOL">      0.00000000      0.00000000      0.00000000</v>
   <v name="AVECCONST">      0.00000000      0.00000000      0.00000000</v>
  </separator>
  <separator name="response functions" >
   <i type="logical" name="LADDER"> F  </i>
   <i type="logical" name="LFXC"> F  </i>
   <i type="logical" name="LHARTREE"> T  </i>
   <i type="int" name="IBSE">     0</i>
   <i type="logical" name="LTCTE"> F  </i>
   <i type="logical" name="LTETE"> F  </i>
   <i type="logical" name="LTRIPLET"> F  </i>
   <i type="logical" name="LFXCEPS"> F  </i>
   <i type="logical" name="L2ORDER"> F  </i>
   <i type="logical" name="LUSEW"> F  </i>
   <i name="ENCUTGW">     -2.00000000</i>
   <i name="ENCUTGWSOFT">     -2.00000000</i>
   <i name="ENCUTLF">     -1.00000000</i>
   <i type="int" name="LMAXMP2">    -1</i>
   <i name="SCISSOR">      0.00000000</i>
   <i type="int" name="NOMEGA">     0</i>
   <i type="int" name="NOMEGAR">     0</i>
   <i type="int" name="NBANDSGW">    -1</i>
   <i type="int" name="NBANDSO">    -1</i>
   <i type="int" name="NBANDSV">    -1</i>
   <i type="int" name="NELM">     1</i>
   <i type="int" name="DIM">     3</i>
   <i type="int" name="ANTIRES">     0</i>
   <i name="OMEGAMAX">    -30.00000000</i>
   <i name="OMEGATL">   -200.00000000</i>
   <i type="int" name="OMEGAGRID">     0</i>
   <i name="CSHIFT">     -0.10000000</i>
   <i type="logical" name="SELFENERGY"> F  </i>
   <i type="logical" name="LSPECTRAL"> F  </i>
   <i type="logical" name="ODDONLYGW"> F  </i>
   <i type="logical" name="EVENONLYGW"> F  </i>
   <i type="int" name="NKREDLFX">     1</i>
   <i type="int" name="NKREDLFY">     1</i>
   <i type="int" name="NKREDLFZ">     1</i>
   <i type="int" name="MAXMEM">  1800</i>
   <i type="int" name="TELESCOPE">     0</i>
  </separator>
 </parameters>
 <atominfo>
  <atoms>       8 </atoms>
  <types>       1 </types>
  <array name="atoms" >
   <dimension dim="1">ion</dimension>
   <field type="string">element</field>
   <field type="int">atomtype</field>
   <set>
    <rc><c>Ga</c><c>   1</c></rc>
    <rc><c>Ga</c><c>   1</c></rc>
    <rc><c>Ga</c><c>   1</c></rc>
    <rc><c>Ga</c><c>   1</c></rc>
    <rc><c>Ga</c><c>   1</c></rc>
    <rc><c>Ga</c><c>   1</c></rc>
    <rc><c>Ga</c><c>   1</c></rc>
    <rc><c>Ga</c><c>   1</c></rc>
   </set>
  </array>
  <array name="atomtypes" >
   <dimension dim="1">type</dimension>
   <field type="int">atomspertype</field>
   <field type="string">element</field>
   <field>mass</field>
   <field>valence</field>
   <field type="string">pseudopotential</field>
   <set>
    <rc><c>   8</c><c>Ga</c><c>     69.72300000</c><c>      3.00000000</c><c> PAW_PBE Ga 08Apr2002                   </c></rc>
   </set>
  </array>
 </atominfo>
 <structure name="initialpos" >
  <crystal>
   <varray name="basis" >
    <v>       5.76286300       0.00000000       0.00000000 </v>
    <v>       0.00000000       5.76286300       0.00000000 </v>
    <v>       0.00000000       0.00000000       5.76286300 </v>
   </varray>
   <i name="volume">    191.38808007 </i>
   <varray name="rec_basis" >
    <v>       0.17352486       0.00000000       0.00000000 </v>
    <v>       0.00000000       0.17352486       0.00000000 </v>
    <v>       0.00000000       0.00000000       0.17352486 </v>
   </varray>
  </crystal>
  <varray name="positions" >
   <v>       0.75000000       0.75000000       0.75000000 </v>
   <v>       0.50000000       0.00000000       0.00000000 </v>
   <v>       0.75000000       0.25000000       0.25000000 </v>
   <v>       0.50000000       0.50000000       0.50000000 </v>
   <v>       0.25000000       0.75000000       0.25000000 </v>
   <v>       0.00000000       0.00000000       0.50000000 </v>
   <v>       0.25000000       0.25000000       0.75000000 </v>
   <v>       0.00000000       0.50000000       0.00000000 </v>
  </varray>
 </structure>
 <calculation>
  <scstep>
   <time name="dav">    0.24    0.24</time>
   <time name="total">    0.28    0.30</time>
   <energy>
    <i name="alphaZ">     59.64982895 </i>
    <i name="ewald">   -484.56382983 </i>
    <i name="hartreedc">    -22.55400904 </i>
    <i name="XCdc">   -155.28695466 </i>
    <i name="pawpsdc">    330.10196642 </i>
    <i name="pawaedc">   -140.54714835 </i>
    <i name="eentropy">     -0.05353935 </i>
    <i name="bandstr">     17.67716460 </i>
    <i name="atom">    470.95023928 </i>
    <i name="e_fr_energy">     75.37371802 </i>
    <i name="e_wo_entrp">     75.42725737 </i>
    <i name="e_0_energy">     75.40048769 </i>
   </energy>
  </scstep>
  <scstep>
   <time name="dav">    0.36    0.36</time>
   <time name="total">    0.36    0.36</time>
   <energy>
    <i name="e_fr_energy">    -19.14949781 </i>
    <i name="e_wo_entrp">    -19.05626250 </i>
    <i name="e_0_energy">    -19.10288015 </i>
   </energy>
  </scstep>
  <scstep>
   <time name="dav">    0.26    0.26</time>
   <time name="total">    0.26    0.26</time>
   <energy>
    <i name="e_fr_energy">    -21.04794620 </i>
    <i name="e_wo_entrp">    -20.94911625 </i>
    <i name="e_0_energy">    -20.99853123 </i>
   </energy>
  </scstep>
  <scstep>
   <time name="dav">    0.40    0.40</time>
   <time name="total">    0.40    0.41</time>
   <energy>
    <i name="e_fr_energy">    -21.05534265 </i>
    <i name="e_wo_entrp">    -20.95644196 </i>
    <i name="e_0_energy">    -21.00589231 </i>
   </energy>
  </scstep>
  <scstep>
   <time name="dav">    0.26    0.26</time>
   <time name="total">    0.38    0.39</time>
   <energy>
    <i name="e_fr_energy">    -21.05534382 </i>
    <i name="e_wo_entrp">    -20.95644313 </i>
    <i name="e_0_energy">    -21.00589347 </i>
   </energy>
  </scstep>
  <scstep>
   <time name="diag">    0.06    0.08</time>
   <time name="diis">    0.19    0.19</time>
   <time name="orth">    0.00    0.00</time>
   <time name="total">    0.39    0.42</time>
   <energy>
    <i name="e_fr_energy">    -20.97269672 </i>
    <i name="e_wo_entrp">    -20.87379063 </i>
    <i name="e_0_energy">    -20.92324368 </i>
   </energy>
  </scstep>
  <scstep>
   <time name="diag">    0.04    0.04</time>
   <time name="diis">    0.19    0.19</time>
   <time name="orth">    0.00    0.00</time>
   <time name="total">    0.38    0.38</time>
   <energy>
    <i name="e_fr_energy">    -20.93015596 </i>
    <i name="e_wo_entrp">    -20.83118509 </i>
    <i name="e_0_energy">    -20.88067053 </i>
   </energy>
  </scstep>
  <scstep>
   <time name="diag">    0.04    0.04</time>
   <time name="diis">    0.25    0.25</time>
   <time name="orth">    0.00    0.00</time>
   <time name="total">    0.44    0.44</time>
   <energy>
    <i name="e_fr_energy">    -20.93042036 </i>
    <i name="e_wo_entrp">    -20.83139698 </i>
    <i name="e_0_energy">    -20.88090867 </i>
   </energy>
  </scstep>
  <scstep>
   <time name="diag">    0.04    0.04</time>
   <time name="diis">    0.26    0.26</time>
   <time name="orth">    0.00    0.00</time>
   <time name="total">    0.32    0.33</time>
   <energy>
    <i name="alphaZ">     59.64982895 </i>
    <i name="ewald">   -484.56382983 </i>
    <i name="hartreedc">    -24.22791799 </i>
    <i name="XCdc">   -153.71876902 </i>
    <i name="pawpsdc">    419.84734498 </i>
    <i name="pawaedc">   -231.70311539 </i>
    <i name="eentropy">     -0.09904038 </i>
    <i name="bandstr">    -77.06519894 </i>
    <i name="atom">    470.95023928 </i>
    <i name="e_fr_energy">    -20.93045836 </i>
    <i name="e_wo_entrp">    -20.83141798 </i>
    <i name="e_0_energy">    -20.88093817 </i>
   </energy>
  </scstep>
  <structure>
   <crystal>
    <varray name="basis" >
     <v>       5.76286300       0.00000000       0.00000000 </v>
     <v>       0.00000000       5.76286300       0.00000000 </v>
     <v>       0.00000000       0.00000000       5.76286300 </v>
    </varray>
    <i name="volume">    191.38808007 </i>
    <varray name="rec_basis" >
     <v>       0.17352486       0.00000000       0.00000000 </v>
     <v>       0.00000000       0.17352486       0.00000000 </v>
     <v>       0.00000000       0.00000000       0.17352486 </v>
    </varray>
   </crystal>
   <varray name="positions" >
    <v>       0.75000000       0.75000000       0.75000000 </v>
    <v>       0.50000000       0.00000000       0.00000000 </v>
    <v>       0.75000000       0.25000000       0.25000000 </v>
    <v>       0.50000000       0.50000000       0.50000000 </v>
    <v>       0.25000000       0.75000000       0.25000000 </v>
    <v>       0.00000000       0.00000000       0.50000000 </v>
    <v>       0.25000000       0.25000000       0.75000000 </v>
    <v>       0.00000000       0.50000000       0.00000000 </v>
   </varray>
  </structure>
  <varray name="forces" >
   <v>       0.00000000      -0.00000000      -0.00000000 </v>
   <v>      -0.00000000       0.00000000       0.00000000 </v>
   <v>       0.00000000      -0.00000000       0.00000000 </v>
   <v>      -0.00000000      -0.00000000      -0.00000000 </v>
   <v>       0.00000000      -0.00000000      -0.00000000 </v>
   <v>      -0.00000000       0.00000000       0.00000000 </v>
   <v>       0.00000000       0.00000000       0.00000000 </v>
   <v>      -0.00000000       0.00000000      -0.00000000 </v>
  </varray>
  <varray name="stress" >
   <v>      27.84601570       0.00000000       0.00000000 </v>
   <v>      -0.00000000      27.84601570      -0.00000000 </v>
   <v>      -0.00000000      -0.00000000      27.84601570 </v>
  </varray>
  <energy>
   <i name="e_fr_energy">    -20.93045836 </i>
   <i name="e_wo_entrp">    -20.88093817 </i>
   <i name="e_0_energy">     -0.09904038 </i>
  </energy>
  <time name="totalsc">    4.05    4.12</time>
  <eigenvalues>
   <array>
    <dimension dim="1">band</dimension>
    <dimension dim="2">kpoint</dimension>
    <dimension dim="3">spin</dimension>
    <field>eigene</field>
    <field>occ</field>
    <set>
     <set comment="spin 1">
      <set comment="kpoint 1">
       <r>   -8.7698    1.0000 </r>
       <r>   -5.4293    1.0000 </r>
       <r>   -5.4293    1.0000 </r>
       <r>   -5.4293    1.0000 </r>
       <r>   -4.1835    1.0000 </r>
       <r>   -4.1835    1.0000 </r>
       <r>   -4.1835    1.0000 </r>
       <r>   -0.1163    1.0000 </r>
       <r>   -0.1163    1.0000 </r>
       <r>   -0.1163    1.0000 </r>
       <r>    0.3122    0.9984 </r>
       <r>    0.3122    0.9984 </r>
       <r>    0.3122    0.9984 </r>
       <r>    2.4297    0.0000 </r>
       <r>    3.4640    0.0000 </r>
       <r>    3.4640    0.0000 </r>
       <r>    3.6586    0.0000 </r>
       <r>    3.6586    0.0000 </r>
       <r>    3.6586    0.0000 </r>
       <r>    4.2507    0.0000 </r>
      </set>
      <set comment="kpoint 2">
       <r>   -8.5396    1.0000 </r>
       <r>   -6.5110    1.0000 </r>
       <r>   -5.3374    1.0000 </r>
       <r>   -5.3374    1.0000 </r>
       <r>   -4.1762    1.0000 </r>
       <r>   -4.1762    1.0000 </r>
       <r>   -2.8337    1.0000 </r>
       <r>   -0.7185    1.0000 </r>
       <r>   -0.7185    1.0000 </r>
       <r>    0.1092    1.0000 </r>
       <r>    0.1092    1.0000 </r>
       <r>    0.1826    0.9999 </r>
       <r>    0.5609    0.8847 </r>
       <r>    1.1966    0.0005 </r>
       <r>    2.6272    0.0000 </r>
       <r>    2.7873    0.0000 </r>
       <r>    3.7714    0.0000 </r>
       <r>    4.4212    0.0000 </r>
       <r>    4.4212    0.0000 </r>
       <r>    4.7267    0.0000 </r>
      </set>
      <set comment="kpoint 3">
       <r>   -8.0817    1.0000 </r>
       <r>   -7.4018    1.0000 </r>
       <r>   -5.2304    1.0000 </r>
       <r>   -5.2304    1.0000 </r>
       <r>   -4.1850    1.0000 </r>
       <r>   -4.1850    1.0000 </r>
       <r>   -1.4474    1.0000 </r>
       <r>   -1.0609    1.0000 </r>
       <r>   -1.0609    1.0000 </r>
       <r>   -0.2360    1.0000 </r>
       <r>   -0.2360    1.0000 </r>
       <r>   -0.0977    1.0000 </r>
       <r>    0.7872    0.3441 </r>
       <r>    1.0495    0.0120 </r>
       <r>    1.6898    0.0000 </r>
       <r>    1.7560    0.0000 </r>
       <r>    4.0933    0.0000 </r>
       <r>    4.6315    0.0000 </r>
       <r>    5.5546    0.0000 </r>
       <r>    5.9862    0.0000 </r>
      </set>
      <set comment="kpoint 4">
       <r>   -8.3130    1.0000 </r>
       <r>   -6.3446    1.0000 </r>
       <r>   -6.3446    1.0000 </r>
       <r>   -5.4362    1.0000 </r>
       <r>   -4.0923    1.0000 </r>
       <r>   -3.0607    1.0000 </r>
       <r>   -3.0607    1.0000 </r>
       <r>   -1.1941    1.0000 </r>
       <r>   -0.3798    1.0000 </r>
       <r>   -0.3798    1.0000 </r>
       <r>    0.1161    1.0000 </r>
       <r>    0.4910    0.9548 </r>
       <r>    0.4910    0.9548 </r>
       <r>    0.7376    0.4797 </r>
       <r>    1.8693    0.0000 </r>
       <r>    3.1768    0.0000 </r>
       <r>    4.0979    0.0000 </r>
       <r>    4.6404    0.0000 </r>
       <r>    4.6404    0.0000 </r>
       <r>    5.2805    0.0000 </r>
      </set>
      <set comment="kpoint 5">
       <r>   -7.8637    1.0000 </r>
       <r>   -7.2011    1.0000 </r>
       <r>   -6.0454    1.0000 </r>
       <r>   -5.6971    1.0000 </r>
       <r>   -3.8451    1.0000 </r>
       <r>   -3.4529    1.0000 </r>
       <r>   -1.9959    1.0000 </r>
       <r>   -1.2241    1.0000 </r>
       <r>   -0.9608    1.0000 </r>
       <r>   -0.8942    1.0000 </r>
       <r>    0.2142    0.9999 </r>
       <r>    0.4906    0.9550 </r>
       <r>    0.7167    0.5387 </r>
       <r>    0.9801    0.0388 </r>
       <r>    1.2872    0.0000 </r>
       <r>    2.3647    0.0000 </r>
       <r>    5.0260    0.0000 </r>
       <r>    5.0614    0.0000 </r>
       <r>    5.5654    0.0000 </r>
       <r>    6.2021    0.0000 </r>
      </set>
      <set comment="kpoint 6">
       <r>   -7.4353    1.0000 </r>
       <r>   -6.8155    1.0000 </r>
       <r>   -6.8155    1.0000 </r>
       <r>   -6.2851    1.0000 </r>
       <r>   -3.3393    1.0000 </r>
       <r>   -2.6993    1.0000 </r>
       <r>   -2.6993    1.0000 </r>
       <r>   -1.8749    1.0000 </r>
       <r>   -0.9989    1.0000 </r>
       <r>   -0.4751    1.0000 </r>
       <r>   -0.4751    1.0000 </r>
       <r>    0.1736    1.0000 </r>
       <r>    1.5147    0.0000 </r>
       <r>    1.5813    0.0000 </r>
       <r>    1.5813    0.0000 </r>
       <r>    2.4481    0.0000 </r>
       <r>    4.8403    0.0000 </r>
       <r>    5.4952    0.0000 </r>
       <r>    5.8279    0.0000 </r>
       <r>    5.8279    0.0000 </r>
      </set>
      <set comment="kpoint 7">
       <r>   -8.0916    1.0000 </r>
       <r>   -6.2353    1.0000 </r>
       <r>   -6.2353    1.0000 </r>
       <r>   -6.2353    1.0000 </r>
       <r>   -3.4214    1.0000 </r>
       <r>   -3.4214    1.0000 </r>
       <r>   -3.4214    1.0000 </r>
       <r>   -0.9080    1.0000 </r>
       <r>   -0.4953    1.0000 </r>
       <r>   -0.4953    1.0000 </r>
       <r>   -0.4953    1.0000 </r>
       <r>    0.9609    0.0516 </r>
       <r>    0.9609    0.0516 </r>
       <r>    0.9609    0.0516 </r>
       <r>    2.6582    0.0000 </r>
       <r>    2.6582    0.0000 </r>
       <r>    4.3795    0.0000 </r>
       <r>    4.3795    0.0000 </r>
       <r>    4.3795    0.0000 </r>
       <r>    4.4505    0.0000 </r>
      </set>
      <set comment="kpoint 8">
       <r>   -7.6557    1.0000 </r>
       <r>   -7.0226    1.0000 </r>
       <r>   -6.1052    1.0000 </r>
       <r>   -6.1052    1.0000 </r>
       <r>   -3.7716    1.0000 </r>
       <r>   -3.7716    1.0000 </r>
       <r>   -2.7017    1.0000 </r>
       <r>   -1.8775    1.0000 </r>
       <r>   -0.4359    1.0000 </r>
       <r>   -0.4359    1.0000 </r>
       <r>    0.6607    0.6891 </r>
       <r>    1.0286    0.0175 </r>
       <r>    1.0286    0.0175 </r>
       <r>    1.3913    0.0000 </r>
       <r>    1.9432    0.0000 </r>
       <r>    1.9884    0.0000 </r>
       <r>    4.8780    0.0000 </r>
       <r>    4.9772    0.0000 </r>
       <r>    5.2561    0.0000 </r>
       <r>    5.2561    0.0000 </r>
      </set>
      <set comment="kpoint 9">
       <r>   -7.2544    1.0000 </r>
       <r>   -6.7016    1.0000 </r>
       <r>   -6.7016    1.0000 </r>
       <r>   -6.3388    1.0000 </r>
       <r>   -3.8048    1.0000 </r>
       <r>   -3.3968    1.0000 </r>
       <r>   -3.3968    1.0000 </r>
       <r>   -2.7434    1.0000 </r>
       <r>    0.0644    1.0000 </r>
       <r>    0.5197    0.9319 </r>
       <r>    0.5197    0.9319 </r>
       <r>    1.3160    0.0000 </r>
       <r>    1.6580    0.0000 </r>
       <r>    1.6950    0.0000 </r>
       <r>    1.6950    0.0000 </r>
       <r>    2.3633    0.0000 </r>
       <r>    4.7857    0.0000 </r>
       <r>    4.9842    0.0000 </r>
       <r>    5.3528    0.0000 </r>
       <r>    5.3528    0.0000 </r>
      </set>
      <set comment="kpoint 10">
       <r>   -6.9295    1.0000 </r>
       <r>   -6.5658    1.0000 </r>
       <r>   -6.5658    1.0000 </r>
       <r>   -6.5658    1.0000 </r>
       <r>   -3.9071    1.0000 </r>
       <r>   -3.9071    1.0000 </r>
       <r>   -3.9071    1.0000 </r>
       <r>   -3.5004    1.0000 </r>
       <r>    1.3762    0.0000 </r>
       <r>    1.3762    0.0000 </r>
       <r>    1.3762    0.0000 </r>
       <r>    1.9041    0.0000 </r>
       <r>    1.9041    0.0000 </r>
       <r>    1.9041    0.0000 </r>
       <r>    2.1705    0.0000 </r>
       <r>    2.1705    0.0000 </r>
       <r>    4.0422    0.0000 </r>
       <r>    4.6695    0.0000 </r>
       <r>    4.6695    0.0000 </r>
       <r>    4.6695    0.0000 </r>
      </set>
     </set>
    </set>
   </array>
  </eigenvalues>
  <separator name="orbital magnetization" >
   <v name="MAGDIPOLOUT">      0.00000000      0.00000000      0.00000000</v>
  </separator>
  <dos>
   <i name="efermi">      0.73045566 </i>
   <total>
    <array>
     <dimension dim="1">gridpoints</dimension>
     <dimension dim="2">spin</dimension>
     <field>energy</field>
     <field>total</field>
     <field>integrated</field>
     <set>
      <set comment="spin 1">
       <r>   -10.7698     0.0000     0.0000 </r>
       <r>   -10.7066     0.0000     0.0000 </r>
       <r>   -10.6433     0.0000     0.0000 </r>
       <r>   -10.5801     0.0000     0.0000 </r>
       <r>   -10.5169     0.0000     0.0000 </r>
       <r>   -10.4536     0.0000     0.0000 </r>
       <r>   -10.3904     0.0000     0.0000 </r>
       <r>   -10.3271     0.0000     0.0000 </r>
       <r>   -10.2639     0.0000     0.0000 </r>
       <r>   -10.2007     0.0000     0.0000 </r>
       <r>   -10.1374     0.0000     0.0000 </r>
       <r>   -10.0742     0.0000     0.0000 </r>
       <r>   -10.0109     0.0000     0.0000 </r>
       <r>    -9.9477     0.0000     0.0000 </r>
       <r>    -9.8845     0.0000     0.0000 </r>
       <r>    -9.8212     0.0000     0.0000 </r>
       <r>    -9.7580     0.0000     0.0000 </r>
       <r>    -9.6947     0.0000     0.0000 </r>
       <r>    -9.6315     0.0000     0.0000 </r>
       <r>    -9.5683     0.0000     0.0000 </r>
       <r>    -9.5050     0.0000     0.0000 </r>
       <r>    -9.4418     0.0000     0.0000 </r>
       <r>    -9.3785     0.0000     0.0000 </r>
       <r>    -9.3153     0.0001     0.0000 </r>
       <r>    -9.2521     0.0003     0.0000 </r>
       <r>    -9.1888     0.0014     0.0001 </r>
       <r>    -9.1256     0.0052     0.0004 </r>
       <r>    -9.0623     0.0160     0.0015 </r>
       <r>    -8.9991     0.0405     0.0040 </r>
       <r>    -8.9359     0.0862     0.0095 </r>
       <r>    -8.8726     0.1566     0.0194 </r>
       <r>    -8.8094     0.2502     0.0352 </r>
       <r>    -8.7461     0.3641     0.0582 </r>
       <r>    -8.6829     0.4970     0.0897 </r>
       <r>    -8.6197     0.6418     0.1302 </r>
       <r>    -8.5564     0.7772     0.1794 </r>
       <r>    -8.4932     0.8790     0.2350 </r>
       <r>    -8.4299     0.9418     0.2945 </r>
       <r>    -8.3667     0.9817     0.3566 </r>
       <r>    -8.3035     1.0202     0.4211 </r>
       <r>    -8.2402     1.0729     0.4890 </r>
       <r>    -8.1770     1.1511     0.5618 </r>
       <r>    -8.1137     1.2592     0.6414 </r>
       <r>    -8.0505     1.3914     0.7294 </r>
       <r>    -7.9873     1.5331     0.8264 </r>
       <r>    -7.9240     1.6583     0.9312 </r>
       <r>    -7.8608     1.7243     1.0403 </r>
       <r>    -7.7975     1.6948     1.1474 </r>
       <r>    -7.7343     1.5811     1.2474 </r>
       <r>    -7.6711     1.4509     1.3392 </r>
       <r>    -7.6078     1.3908     1.4271 </r>
       <r>    -7.5446     1.4606     1.5195 </r>
       <r>    -7.4813     1.6678     1.6250 </r>
       <r>    -7.4181     1.9662     1.7493 </r>
       <r>    -7.3549     2.2783     1.8934 </r>
       <r>    -7.2916     2.5220     2.0529 </r>
       <r>    -7.2284     2.6276     2.2191 </r>
       <r>    -7.1651     2.5626     2.3811 </r>
       <r>    -7.1019     2.3686     2.5309 </r>
       <r>    -7.0387     2.1643     2.6678 </r>
       <r>    -6.9754     2.0841     2.7996 </r>
       <r>    -6.9122     2.1952     2.9384 </r>
       <r>    -6.8489     2.4579     3.0938 </r>
       <r>    -6.7857     2.7505     3.2678 </r>
       <r>    -6.7225     2.9466     3.4541 </r>
       <r>    -6.6592     2.9971     3.6437 </r>
       <r>    -6.5960     2.9600     3.8309 </r>
       <r>    -6.5328     2.9597     4.0180 </r>
       <r>    -6.4695     3.1032     4.2143 </r>
       <r>    -6.4063     3.4027     4.4295 </r>
       <r>    -6.3430     3.7567     4.6670 </r>
       <r>    -6.2798     4.0183     4.9211 </r>
       <r>    -6.2166     4.0973     5.1803 </r>
       <r>    -6.1533     3.9841     5.4322 </r>
       <r>    -6.0901     3.6844     5.6652 </r>
       <r>    -6.0268     3.1920     5.8671 </r>
       <r>    -5.9636     2.5590     6.0289 </r>
       <r>    -5.9004     1.9473     6.1520 </r>
       <r>    -5.8371     1.5462     6.2498 </r>
       <r>    -5.7739     1.4273     6.3401 </r>
       <r>    -5.7106     1.5055     6.4353 </r>
       <r>    -5.6474     1.6534     6.5399 </r>
       <r>    -5.5842     1.8366     6.6560 </r>
       <r>    -5.5209     2.1167     6.7899 </r>
       <r>    -5.4577     2.5242     6.9495 </r>
       <r>    -5.3944     2.9559     7.1364 </r>
       <r>    -5.3312     3.2136     7.3397 </r>
       <r>    -5.2680     3.1351     7.5379 </r>
       <r>    -5.2047     2.6979     7.7085 </r>
       <r>    -5.1415     2.0258     7.8366 </r>
       <r>    -5.0782     1.3142     7.9198 </r>
       <r>    -5.0150     0.7294     7.9659 </r>
       <r>    -4.9518     0.3431     7.9876 </r>
       <r>    -4.8885     0.1357     7.9962 </r>
       <r>    -4.8253     0.0449     7.9990 </r>
       <r>    -4.7620     0.0126     7.9998 </r>
       <r>    -4.6988     0.0047     8.0001 </r>
       <r>    -4.6356     0.0101     8.0007 </r>
       <r>    -4.5723     0.0395     8.0032 </r>
       <r>    -4.5091     0.1342     8.0117 </r>
       <r>    -4.4458     0.3760     8.0355 </r>
       <r>    -4.3826     0.8685     8.0904 </r>
       <r>    -4.3194     1.6579     8.1953 </r>
       <r>    -4.2561     2.6252     8.3613 </r>
       <r>    -4.1929     3.4761     8.5811 </r>
       <r>    -4.1296     3.9207     8.8291 </r>
       <r>    -4.0664     3.9204     9.0770 </r>
       <r>    -4.0032     3.7348     9.3132 </r>
       <r>    -3.9399     3.6732     9.5455 </r>
       <r>    -3.8767     3.7962     9.7856 </r>
       <r>    -3.8134     3.8842    10.0312 </r>
       <r>    -3.7502     3.7025    10.2653 </r>
       <r>    -3.6870     3.2824    10.4729 </r>
       <r>    -3.6237     2.9280    10.6581 </r>
       <r>    -3.5605     2.9425    10.8442 </r>
       <r>    -3.4972     3.3351    11.0551 </r>
       <r>    -3.4340     3.7832    11.2943 </r>
       <r>    -3.3708     3.8908    11.5404 </r>
       <r>    -3.3075     3.5121    11.7625 </r>
       <r>    -3.2443     2.8447    11.9424 </r>
       <r>    -3.1810     2.2296    12.0834 </r>
       <r>    -3.1178     1.8745    12.2019 </r>
       <r>    -3.0546     1.7682    12.3137 </r>
       <r>    -2.9913     1.8128    12.4284 </r>
       <r>    -2.9281     1.9769    12.5534 </r>
       <r>    -2.8648     2.2863    12.6980 </r>
       <r>    -2.8016     2.6882    12.8680 </r>
       <r>    -2.7384     2.9836    13.0567 </r>
       <r>    -2.6751     2.9398    13.2426 </r>
       <r>    -2.6119     2.4828    13.3996 </r>
       <r>    -2.5486     1.7659    13.5113 </r>
       <r>    -2.4854     1.0496    13.5777 </r>
       <r>    -2.4222     0.5241    13.6108 </r>
       <r>    -2.3589     0.2397    13.6260 </r>
       <r>    -2.2957     0.1630    13.6363 </r>
       <r>    -2.2324     0.2627    13.6529 </r>
       <r>    -2.1692     0.5405    13.6871 </r>
       <r>    -2.1060     0.9916    13.7498 </r>
       <r>    -2.0427     1.5425    13.8473 </r>
       <r>    -1.9795     2.0314    13.9758 </r>
       <r>    -1.9162     2.2719    14.1195 </r>
       <r>    -1.8530     2.1639    14.2563 </r>
       <r>    -1.7898     1.7630    14.3678 </r>
       <r>    -1.7265     1.2516    14.4469 </r>
       <r>    -1.6633     0.8327    14.4996 </r>
       <r>    -1.6000     0.6302    14.5395 </r>
       <r>    -1.5368     0.6584    14.5811 </r>
       <r>    -1.4736     0.8657    14.6358 </r>
       <r>    -1.4103     1.2034    14.7119 </r>
       <r>    -1.3471     1.6598    14.8169 </r>
       <r>    -1.2838     2.2329    14.9581 </r>
       <r>    -1.2206     2.8890    15.1408 </r>
       <r>    -1.1574     3.5620    15.3661 </r>
       <r>    -1.0941     4.1786    15.6303 </r>
       <r>    -1.0309     4.6503    15.9244 </r>
       <r>    -0.9676     4.8599    16.2317 </r>
       <r>    -0.9044     4.7179    16.5301 </r>
       <r>    -0.8412     4.2601    16.7995 </r>
       <r>    -0.7779     3.6717    17.0317 </r>
       <r>    -0.7147     3.2039    17.2343 </r>
       <r>    -0.6514     3.0662    17.4282 </r>
       <r>    -0.5882     3.3461    17.6398 </r>
       <r>    -0.5250     3.9442    17.8893 </r>
       <r>    -0.4617     4.5750    18.1786 </r>
       <r>    -0.3985     4.9146    18.4894 </r>
       <r>    -0.3352     4.8200    18.7942 </r>
       <r>    -0.2720     4.4085    19.0730 </r>
       <r>    -0.2088     3.9308    19.3216 </r>
       <r>    -0.1455     3.6026    19.5494 </r>
       <r>    -0.0823     3.5530    19.7741 </r>
       <r>    -0.0190     3.8391    20.0169 </r>
       <r>     0.0442     4.4079    20.2956 </r>
       <r>     0.1074     5.0414    20.6145 </r>
       <r>     0.1707     5.4348    20.9582 </r>
       <r>     0.2339     5.4265    21.3013 </r>
       <r>     0.2972     5.1648    21.6279 </r>
       <r>     0.3604     4.9999    21.9441 </r>
       <r>     0.4236     5.1659    22.2708 </r>
       <r>     0.4869     5.5687    22.6230 </r>
       <r>     0.5501     5.8943    22.9957 </r>
       <r>     0.6134     5.9020    23.3690 </r>
       <r>     0.6766     5.5880    23.7224 </r>
       <r>     0.7398     5.1196    24.0461 </r>
       <r>     0.8031     4.7022    24.3435 </r>
       <r>     0.8663     4.4923    24.6276 </r>
       <r>     0.9296     4.5178    24.9133 </r>
       <r>     0.9928     4.6379    25.2066 </r>
       <r>     1.0560     4.6528    25.5008 </r>
       <r>     1.1193     4.5030    25.7856 </r>
       <r>     1.1825     4.3174    26.0586 </r>
       <r>     1.2458     4.2435    26.3270 </r>
       <r>     1.3090     4.2824    26.5978 </r>
       <r>     1.3722     4.3354    26.8720 </r>
       <r>     1.4355     4.3693    27.1483 </r>
       <r>     1.4987     4.4647    27.4306 </r>
       <r>     1.5620     4.6900    27.7272 </r>
       <r>     1.6252     4.9706    28.0416 </r>
       <r>     1.6884     5.1241    28.3656 </r>
       <r>     1.7517     5.0186    28.6830 </r>
       <r>     1.8149     4.6696    28.9783 </r>
       <r>     1.8782     4.1787    29.2426 </r>
       <r>     1.9414     3.6179    29.4714 </r>
       <r>     2.0046     3.0168    29.6621 </r>
       <r>     2.0679     2.4413    29.8165 </r>
       <r>     2.1311     2.0308    29.9450 </r>
       <r>     2.1943     1.9250    30.0667 </r>
       <r>     2.2576     2.1488    30.2026 </r>
       <r>     2.3208     2.5576    30.3643 </r>
       <r>     2.3841     2.9030    30.5479 </r>
       <r>     2.4473     2.9902    30.7370 </r>
       <r>     2.5105     2.8045    30.9144 </r>
       <r>     2.5738     2.4823    31.0713 </r>
       <r>     2.6370     2.1627    31.2081 </r>
       <r>     2.7003     1.8810    31.3271 </r>
       <r>     2.7635     1.5939    31.4279 </r>
       <r>     2.8267     1.2696    31.5081 </r>
       <r>     2.8900     0.9392    31.5675 </r>
       <r>     2.9532     0.6777    31.6104 </r>
       <r>     3.0165     0.5485    31.6451 </r>
       <r>     3.0797     0.5543    31.6801 </r>
       <r>     3.1429     0.6310    31.7200 </r>
       <r>     3.2062     0.6930    31.7639 </r>
       <r>     3.2694     0.6982    31.8080 </r>
       <r>     3.3327     0.6717    31.8505 </r>
       <r>     3.3959     0.6713    31.8930 </r>
       <r>     3.4591     0.7350    31.9394 </r>
       <r>     3.5224     0.8633    31.9940 </r>
       <r>     3.5856     1.0296    32.0591 </r>
       <r>     3.6489     1.1876    32.1342 </r>
       <r>     3.7121     1.2803    32.2152 </r>
       <r>     3.7753     1.2740    32.2958 </r>
       <r>     3.8386     1.2030    32.3719 </r>
       <r>     3.9018     1.1675    32.4457 </r>
       <r>     3.9651     1.2573    32.5252 </r>
       <r>     4.0283     1.4663    32.6179 </r>
       <r>     4.0915     1.6936    32.7250 </r>
       <r>     4.1548     1.8500    32.8420 </r>
       <r>     4.2180     1.9579    32.9659 </r>
       <r>     4.2813     2.1234    33.1001 </r>
       <r>     4.3445     2.4122    33.2527 </r>
       <r>     4.4077     2.7872    33.4289 </r>
       <r>     4.4710     3.1809    33.6301 </r>
       <r>     4.5342     3.5816    33.8566 </r>
       <r>     4.5975     4.0025    34.1097 </r>
       <r>     4.6607     4.3972    34.3878 </r>
       <r>     4.7239     4.6768    34.6836 </r>
       <r>     4.7872     4.8217    34.9885 </r>
       <r>     4.8504     4.9174    35.2994 </r>
       <r>     4.9137     5.0463    35.6186 </r>
       <r>     4.9769     5.1680    35.9454 </r>
       <r>     5.0401     5.1521    36.2712 </r>
       <r>     5.1034     4.9376    36.5835 </r>
       <r>     5.1666     4.6240    36.8759 </r>
       <r>     5.2299     4.3689    37.1522 </r>
       <r>     5.2931     4.2272    37.4195 </r>
       <r>     5.3563     4.1346    37.6810 </r>
       <r>     5.4196     4.0145    37.9349 </r>
       <r>     5.4828     3.8330    38.1773 </r>
       <r>     5.5461     3.5634    38.4026 </r>
       <r>     5.6093     3.1853    38.6040 </r>
       <r>     5.6725     2.7471    38.7778 </r>
       <r>     5.7358     2.3657    38.9274 </r>
       <r>     5.7990     2.1223    39.0616 </r>
       <r>     5.8623     1.9879    39.1873 </r>
       <r>     5.9255     1.8792    39.3061 </r>
       <r>     5.9887     1.7613    39.4175 </r>
       <r>     6.0520     1.6675    39.5230 </r>
       <r>     6.1152     1.6242    39.6257 </r>
       <r>     6.1785     1.5854    39.7260 </r>
       <r>     6.2417     1.4571    39.8181 </r>
       <r>     6.3049     1.1891    39.8933 </r>
       <r>     6.3682     0.8299    39.9458 </r>
       <r>     6.4314     0.4854    39.9765 </r>
       <r>     6.4947     0.2356    39.9914 </r>
       <r>     6.5579     0.0944    39.9974 </r>
       <r>     6.6211     0.0311    39.9993 </r>
       <r>     6.6844     0.0084    39.9999 </r>
       <r>     6.7476     0.0019    40.0000 </r>
       <r>     6.8109     0.0003    40.0000 </r>
       <r>     6.8741     0.0001    40.0000 </r>
       <r>     6.9373     0.0000    40.0000 </r>
       <r>     7.0006     0.0000    40.0000 </r>
       <r>     7.0638     0.0000    40.0000 </r>
       <r>     7.1271     0.0000    40.0000 </r>
       <r>     7.1903     0.0000    40.0000 </r>
       <r>     7.2535     0.0000    40.0000 </r>
       <r>     7.3168     0.0000    40.0000 </r>
       <r>     7.3800     0.0000    40.0000 </r>
       <r>     7.4433     0.0000    40.0000 </r>
       <r>     7.5065     0.0000    40.0000 </r>
       <r>     7.5697     0.0000    40.0000 </r>
       <r>     7.6330     0.0000    40.0000 </r>
       <r>     7.6962     0.0000    40.0000 </r>
       <r>     7.7595     0.0000    40.0000 </r>
       <r>     7.8227     0.0000    40.0000 </r>
       <r>     7.8859     0.0000    40.0000 </r>
       <r>     7.9492     0.0000    40.0000 </r>
       <r>     8.0124     0.0000    40.0000 </r>
       <r>     8.0757     0.0000    40.0000 </r>
       <r>     8.1389     0.0000    40.0000 </r>
       <r>     8.2021     0.0000    40.0000 </r>
      </set>
     </set>
    </array>
   </total>
  </dos>
 </calculation>
 <structure name="finalpos" >
  <crystal>
   <varray name="basis" >
    <v>       5.76286300       0.00000000       0.00000000 </v>
    <v>       0.00000000       5.76286300       0.00000000 </v>
    <v>       0.00000000       0.00000000       5.76286300 </v>
   </varray>
   <i name="volume">    191.38808007 </i>
   <varray name="rec_basis" >
    <v>       0.17352486       0.00000000       0.00000000 </v>
    <v>       0.00000000       0.17352486       0.00000000 </v>
    <v>       0.00000000       0.00000000       0.17352486 </v>
   </varray>
  </crystal>
  <varray name="positions" >
   <v>       0.75000000       0.75000000       0.75000000 </v>
   <v>       0.50000000       0.00000000       0.00000000 </v>
   <v>       0.75000000       0.25000000       0.25000000 </v>
   <v>       0.50000000       0.50000000       0.50000000 </v>
   <v>       0.25000000       0.75000000       0.25000000 </v>
   <v>       0.00000000       0.00000000       0.50000000 </v>
   <v>       0.25000000       0.25000000       0.75000000 </v>
   <v>       0.00000000       0.50000000       0.00000000 </v>
  </varray>
 </structure>
</modeling>
