   8   8   0   0
  0.2392351E+02  0.5762863E-09  0.5762863E-09  0.5762863E-09  0.5000000E-15
  1.000000000000000E-004
  CAR 
 unknown system                          
      7.20299494     -9.76927486  301      0.71817391      1.00000000
     -9.769  0.0000E+00  0.0000E+00
     -9.713  0.0000E+00  0.0000E+00
     -9.656  0.0000E+00  0.0000E+00
     -9.600  0.0000E+00  0.0000E+00
     -9.543  0.0000E+00  0.0000E+00
     -9.486  0.0000E+00  0.0000E+00
     -9.430  0.0000E+00  0.0000E+00
     -9.373  0.0000E+00  0.0000E+00
     -9.317  0.2156E-16  0.1220E-17
     -9.260  0.8450E-14  0.4793E-15
     -9.204  0.1777E-11  0.1010E-12
     -9.147  0.1996E-09  0.1140E-10
     -9.090  0.1201E-07  0.6907E-09
     -9.034  0.3876E-06  0.2262E-07
     -8.977  0.6739E-05  0.4039E-06
     -8.921  0.6330E-04  0.3985E-05
     -8.864  0.3223E-03  0.2222E-04
     -8.808  0.8928E-03  0.7273E-04
     -8.751  0.1361E-02  0.1497E-03
     -8.694  0.1270E-02  0.2216E-03
     -8.638  0.1375E-02  0.2994E-03
     -8.581  0.2664E-02  0.4501E-03
     -8.525  0.4029E-02  0.6780E-03
     -8.468  0.3589E-02  0.8811E-03
     -8.411  0.2473E-02  0.1021E-02
     -8.355  0.2938E-02  0.1187E-02
     -8.298  0.4069E-02  0.1417E-02
     -8.242  0.3640E-02  0.1623E-02
     -8.185  0.2708E-02  0.1777E-02
     -8.129  0.3672E-02  0.1984E-02
     -8.072  0.5371E-02  0.2288E-02
     -8.015  0.5035E-02  0.2573E-02
     -7.959  0.4141E-02  0.2807E-02
     -7.902  0.5879E-02  0.3140E-02
     -7.846  0.8176E-02  0.3602E-02
     -7.789  0.7023E-02  0.4000E-02
     -7.733  0.4432E-02  0.4251E-02
     -7.676  0.3984E-02  0.4476E-02
     -7.619  0.4216E-02  0.4714E-02
     -7.563  0.3301E-02  0.4901E-02
     -7.506  0.3362E-02  0.5091E-02
     -7.450  0.5980E-02  0.5430E-02
     -7.393  0.8303E-02  0.5899E-02
     -7.337  0.8047E-02  0.6355E-02
     -7.280  0.8469E-02  0.6834E-02
     -7.223  0.1110E-01  0.7462E-02
     -7.167  0.1138E-01  0.8106E-02
     -7.110  0.7963E-02  0.8557E-02
     -7.054  0.5445E-02  0.8865E-02
     -6.997  0.5220E-02  0.9160E-02
     -6.941  0.5198E-02  0.9454E-02
     -6.884  0.6051E-02  0.9796E-02
     -6.827  0.8902E-02  0.1030E-01
     -6.771  0.1155E-01  0.1095E-01
     -6.714  0.1215E-01  0.1164E-01
     -6.658  0.1090E-01  0.1226E-01
     -6.601  0.9141E-02  0.1277E-01
     -6.545  0.8687E-02  0.1327E-01
     -6.488  0.8337E-02  0.1374E-01
     -6.431  0.8182E-02  0.1420E-01
     -6.375  0.1163E-01  0.1486E-01
     -6.318  0.1664E-01  0.1580E-01
     -6.262  0.1693E-01  0.1676E-01
     -6.205  0.1321E-01  0.1750E-01
     -6.149  0.1176E-01  0.1817E-01
     -6.092  0.1430E-01  0.1898E-01
     -6.035  0.1511E-01  0.1983E-01
     -5.979  0.1045E-01  0.2042E-01
     -5.922  0.4382E-02  0.2067E-01
     -5.866  0.1261E-02  0.2074E-01
     -5.809  0.1384E-02  0.2082E-01
     -5.753  0.4159E-02  0.2106E-01
     -5.696  0.7570E-02  0.2149E-01
     -5.639  0.7567E-02  0.2191E-01
     -5.583  0.4476E-02  0.2217E-01
     -5.526  0.3264E-02  0.2235E-01
     -5.470  0.6293E-02  0.2271E-01
     -5.413  0.1109E-01  0.2334E-01
     -5.356  0.1395E-01  0.2412E-01
     -5.300  0.1426E-01  0.2493E-01
     -5.243  0.1305E-01  0.2567E-01
     -5.187  0.1007E-01  0.2624E-01
     -5.130  0.5434E-02  0.2655E-01
     -5.074  0.1771E-02  0.2665E-01
     -5.017  0.3248E-03  0.2666E-01
     -4.960  0.3267E-04  0.2667E-01
     -4.904  0.1782E-05  0.2667E-01
     -4.847  0.5236E-07  0.2667E-01
     -4.791  0.8262E-09  0.2667E-01
     -4.734  0.6979E-11  0.2667E-01
     -4.678  0.1047E-12  0.2667E-01
     -4.621  0.1624E-10  0.2667E-01
     -4.564  0.1927E-08  0.2667E-01
     -4.508  0.1226E-06  0.2667E-01
     -4.451  0.4193E-05  0.2667E-01
     -4.395  0.7740E-04  0.2667E-01
     -4.338  0.7743E-03  0.2672E-01
     -4.282  0.4222E-02  0.2695E-01
     -4.225  0.1266E-01  0.2767E-01
     -4.168  0.2125E-01  0.2887E-01
     -4.112  0.2070E-01  0.3004E-01
     -4.055  0.1265E-01  0.3076E-01
     -3.999  0.6351E-02  0.3112E-01
     -3.942  0.6381E-02  0.3148E-01
     -3.886  0.1192E-01  0.3215E-01
     -3.829  0.1841E-01  0.3320E-01
     -3.772  0.1975E-01  0.3431E-01
     -3.716  0.1396E-01  0.3510E-01
     -3.659  0.6246E-02  0.3546E-01
     -3.603  0.2374E-02  0.3559E-01
     -3.546  0.3875E-02  0.3581E-01
     -3.490  0.1062E-01  0.3641E-01
     -3.433  0.1918E-01  0.3749E-01
     -3.376  0.2189E-01  0.3873E-01
     -3.320  0.1610E-01  0.3964E-01
     -3.263  0.7780E-02  0.4008E-01
     -3.207  0.2848E-02  0.4025E-01
     -3.150  0.2622E-02  0.4039E-01
     -3.094  0.5725E-02  0.4072E-01
     -3.037  0.8148E-02  0.4118E-01
     -2.980  0.6563E-02  0.4155E-01
     -2.924  0.3850E-02  0.4177E-01
     -2.867  0.4201E-02  0.4201E-01
     -2.811  0.7764E-02  0.4244E-01
     -2.754  0.1308E-01  0.4318E-01
     -2.697  0.1676E-01  0.4413E-01
     -2.641  0.1394E-01  0.4492E-01
     -2.584  0.6825E-02  0.4531E-01
     -2.528  0.1885E-02  0.4541E-01
     -2.471  0.2881E-03  0.4543E-01
     -2.415  0.2413E-04  0.4543E-01
     -2.358  0.1102E-05  0.4543E-01
     -2.301  0.2180E-06  0.4543E-01
     -2.245  0.5239E-05  0.4543E-01
     -2.188  0.7752E-04  0.4544E-01
     -2.132  0.6223E-03  0.4547E-01
     -2.075  0.2740E-02  0.4563E-01
     -2.019  0.6826E-02  0.4601E-01
     -1.962  0.1046E-01  0.4660E-01
     -1.905  0.1160E-01  0.4726E-01
     -1.849  0.1031E-01  0.4784E-01
     -1.792  0.6559E-02  0.4822E-01
     -1.736  0.2550E-02  0.4836E-01
     -1.679  0.5656E-03  0.4839E-01
     -1.623  0.1448E-03  0.4840E-01
     -1.566  0.5190E-03  0.4843E-01
     -1.509  0.1855E-02  0.4853E-01
     -1.453  0.3653E-02  0.4874E-01
     -1.396  0.4089E-02  0.4897E-01
     -1.340  0.3622E-02  0.4918E-01
     -1.283  0.5759E-02  0.4950E-01
     -1.227  0.1064E-01  0.5010E-01
     -1.170  0.1321E-01  0.5085E-01
     -1.113  0.1278E-01  0.5158E-01
     -1.057  0.1450E-01  0.5240E-01
     -1.000  0.1866E-01  0.5345E-01
     -0.944  0.2126E-01  0.5465E-01
     -0.887  0.1930E-01  0.5575E-01
     -0.831  0.1346E-01  0.5651E-01
     -0.774  0.9200E-02  0.5703E-01
     -0.717  0.8837E-02  0.5753E-01
     -0.661  0.7923E-02  0.5798E-01
     -0.604  0.5735E-02  0.5830E-01
     -0.548  0.7913E-02  0.5875E-01
     -0.491  0.1622E-01  0.5967E-01
     -0.435  0.2359E-01  0.6100E-01
     -0.378  0.2278E-01  0.6229E-01
     -0.321  0.1634E-01  0.6321E-01
     -0.265  0.1192E-01  0.6389E-01
     -0.208  0.1122E-01  0.6452E-01
     -0.152  0.1117E-01  0.6515E-01
     -0.095  0.1055E-01  0.6575E-01
     -0.039  0.8924E-02  0.6626E-01
      0.018  0.9170E-02  0.6677E-01
      0.075  0.1510E-01  0.6763E-01
      0.131  0.2308E-01  0.6893E-01
      0.188  0.2600E-01  0.7041E-01
      0.244  0.2178E-01  0.7164E-01
      0.301  0.1426E-01  0.7244E-01
      0.358  0.9029E-02  0.7295E-01
      0.414  0.1047E-01  0.7355E-01
      0.471  0.1958E-01  0.7465E-01
      0.527  0.2740E-01  0.7620E-01
      0.584  0.2460E-01  0.7760E-01
      0.640  0.1814E-01  0.7862E-01
      0.697  0.1740E-01  0.7961E-01
      0.754  0.1827E-01  0.8064E-01
      0.810  0.1442E-01  0.8146E-01
      0.867  0.9469E-02  0.8199E-01
      0.923  0.1083E-01  0.8260E-01
      0.980  0.1822E-01  0.8363E-01
      1.036  0.2233E-01  0.8490E-01
      1.093  0.1769E-01  0.8590E-01
      1.150  0.1081E-01  0.8651E-01
      1.206  0.9430E-02  0.8704E-01
      1.263  0.1325E-01  0.8779E-01
      1.319  0.1737E-01  0.8878E-01
      1.376  0.1745E-01  0.8976E-01
      1.432  0.1377E-01  0.9054E-01
      1.489  0.1099E-01  0.9117E-01
      1.546  0.1250E-01  0.9187E-01
      1.602  0.1668E-01  0.9282E-01
      1.659  0.2074E-01  0.9399E-01
      1.715  0.2182E-01  0.9522E-01
      1.772  0.1776E-01  0.9623E-01
      1.828  0.1300E-01  0.9696E-01
      1.885  0.1270E-01  0.9768E-01
      1.942  0.1407E-01  0.9848E-01
      1.998  0.1216E-01  0.9917E-01
      2.055  0.7456E-02  0.9959E-01
      2.111  0.3962E-02  0.9981E-01
      2.168  0.3174E-02  0.9999E-01
      2.224  0.3476E-02  0.1002E+00
      2.281  0.5340E-02  0.1005E+00
      2.338  0.1055E-01  0.1011E+00
      2.394  0.1533E-01  0.1020E+00
      2.451  0.1416E-01  0.1028E+00
      2.507  0.8975E-02  0.1033E+00
      2.564  0.5700E-02  0.1036E+00
      2.620  0.6281E-02  0.1039E+00
      2.677  0.7351E-02  0.1044E+00
      2.734  0.6649E-02  0.1047E+00
      2.790  0.5544E-02  0.1050E+00
      2.847  0.4094E-02  0.1053E+00
      2.903  0.2025E-02  0.1054E+00
      2.960  0.5891E-03  0.1054E+00
      3.017  0.2260E-03  0.1054E+00
      3.073  0.7744E-03  0.1055E+00
      3.130  0.2352E-02  0.1056E+00
      3.186  0.3927E-02  0.1058E+00
      3.243  0.3580E-02  0.1060E+00
      3.299  0.1850E-02  0.1061E+00
      3.356  0.9364E-03  0.1062E+00
      3.413  0.1544E-02  0.1063E+00
      3.469  0.2622E-02  0.1064E+00
      3.526  0.2795E-02  0.1066E+00
      3.582  0.2746E-02  0.1067E+00
      3.639  0.3961E-02  0.1070E+00
      3.695  0.5539E-02  0.1073E+00
      3.752  0.6011E-02  0.1076E+00
      3.809  0.5055E-02  0.1079E+00
      3.865  0.2967E-02  0.1081E+00
      3.922  0.1352E-02  0.1082E+00
      3.978  0.1878E-02  0.1083E+00
      4.035  0.5036E-02  0.1085E+00
      4.091  0.8699E-02  0.1090E+00
      4.148  0.8762E-02  0.1095E+00
      4.205  0.5575E-02  0.1099E+00
      4.261  0.3551E-02  0.1101E+00
      4.318  0.4957E-02  0.1103E+00
      4.374  0.9464E-02  0.1109E+00
      4.431  0.1305E-01  0.1116E+00
      4.487  0.1139E-01  0.1123E+00
      4.544  0.8597E-02  0.1127E+00
      4.601  0.1164E-01  0.1134E+00
      4.657  0.1786E-01  0.1144E+00
      4.714  0.1938E-01  0.1155E+00
      4.770  0.1658E-01  0.1164E+00
      4.827  0.1451E-01  0.1173E+00
      4.883  0.1406E-01  0.1181E+00
      4.940  0.1574E-01  0.1189E+00
      4.997  0.2042E-01  0.1201E+00
      5.053  0.2285E-01  0.1214E+00
      5.110  0.1774E-01  0.1224E+00
      5.166  0.1082E-01  0.1230E+00
      5.223  0.1059E-01  0.1236E+00
      5.279  0.1523E-01  0.1245E+00
      5.336  0.1704E-01  0.1254E+00
      5.393  0.1397E-01  0.1262E+00
      5.449  0.1080E-01  0.1268E+00
      5.506  0.1220E-01  0.1275E+00
      5.562  0.1523E-01  0.1284E+00
      5.619  0.1310E-01  0.1291E+00
      5.675  0.6988E-02  0.1295E+00
      5.732  0.3770E-02  0.1297E+00
      5.789  0.5581E-02  0.1301E+00
      5.845  0.8329E-02  0.1305E+00
      5.902  0.7923E-02  0.1310E+00
      5.958  0.6065E-02  0.1313E+00
      6.015  0.4922E-02  0.1316E+00
      6.072  0.3831E-02  0.1318E+00
      6.128  0.4183E-02  0.1320E+00
      6.185  0.6890E-02  0.1324E+00
      6.241  0.8096E-02  0.1329E+00
      6.298  0.5353E-02  0.1332E+00
      6.354  0.1934E-02  0.1333E+00
      6.411  0.3798E-03  0.1333E+00
      6.468  0.4043E-04  0.1333E+00
      6.524  0.2326E-05  0.1333E+00
      6.581  0.7204E-07  0.1333E+00
      6.637  0.1198E-08  0.1333E+00
      6.694  0.1066E-10  0.1333E+00
      6.750  0.5070E-13  0.1333E+00
      6.807  0.1279E-15  0.1333E+00
      6.864  0.0000E+00  0.1333E+00
      6.920  0.0000E+00  0.1333E+00
      6.977  0.0000E+00  0.1333E+00
      7.033  0.0000E+00  0.1333E+00
      7.090  0.0000E+00  0.1333E+00
      7.146  0.0000E+00  0.1333E+00
      7.203  0.0000E+00  0.1333E+00
