    8    8  300    1
  0.2392351E+02  0.5762863E-09  0.5762863E-09  0.5762863E-09  0.5000000E-15
  1.000000000000000E-004
  CAR 
 unknown system                          
   24   10   20
 
  0.8333333E-01  0.8333333E-01  0.8333333E-01  0.3703704E-01
   1       -8.769275
   2       -5.428700
   3       -5.428700
   4       -5.428700
   5       -4.182821
   6       -4.182821
   7       -4.182821
   8       -0.115892
   9       -0.115892
  10       -0.115892
  11        0.312613
  12        0.312613
  13        0.312613
  14        2.430344
  15        3.464597
  16        3.464598
  17        3.659021
  18        3.659022
  19        3.659023
  20        4.251148
 
  0.2500000E+00  0.8333333E-01  0.8333333E-01  0.1111111E+00
   1       -8.539050
   2       -6.510437
   3       -5.336783
   4       -5.336783
   5       -4.175549
   6       -4.175549
   7       -2.833061
   8       -0.718197
   9       -0.718197
  10        0.109561
  11        0.109561
  12        0.183004
  13        0.561340
  14        1.197207
  15        2.627730
  16        2.787908
  17        3.771816
  18        4.421596
  19        4.421596
  20        4.727119
 
  0.4166667E+00  0.8333333E-01  0.8333333E-01  0.1111111E+00
   1       -8.081095
   2       -7.401218
   3       -5.229739
   4       -5.229739
   5       -4.184357
   6       -4.184357
   7       -1.446671
   8       -1.060606
   9       -1.060606
  10       -0.235640
  11       -0.235640
  12       -0.097038
  13        0.787645
  14        1.049907
  15        1.690326
  16        1.756479
  17        4.093713
  18        4.631971
  19        5.554981
  20        5.986724
 
  0.2500000E+00  0.2500000E+00  0.8333333E-01  0.1111111E+00
   1       -8.312421
   2       -6.343970
   3       -6.343970
   4       -5.435556
   5       -4.091645
   6       -3.060026
   7       -3.060026
   8       -1.193740
   9       -0.379391
  10       -0.379391
  11        0.116686
  12        0.491430
  13        0.491430
  14        0.738055
  15        1.869743
  16        3.177439
  17        4.098294
  18        4.640836
  19        4.640837
  20        5.281355
 
  0.4166667E+00  0.2500000E+00  0.8333333E-01  0.2222222E+00
   1       -7.863088
   2       -7.200531
   3       -6.044743
   4       -5.696459
   5       -3.844508
   6       -3.452238
   7       -1.995260
   8       -1.223734
   9       -0.960144
  10       -0.893859
  11        0.214631
  12        0.491046
  13        0.717122
  14        0.980511
  15        1.287693
  16        2.365178
  17        5.026454
  18        5.061844
  19        5.565860
  20        6.202995
 
  0.4166667E+00  0.4166667E+00  0.8333333E-01  0.1111111E+00
   1       -7.434683
   2       -6.814865
   3       -6.814865
   4       -6.284495
   5       -3.338692
   6       -2.698710
   7       -2.698710
   8       -1.874303
   9       -0.998479
  10       -0.474697
  11       -0.474697
  12        0.174012
  13        1.515180
  14        1.581786
  15        1.581786
  16        2.448676
  17        4.840709
  18        5.495724
  19        5.828405
  20        5.828454
 
  0.2500000E+00  0.2500000E+00  0.2500000E+00  0.3703704E-01
   1       -8.091078
   2       -6.234648
   3       -6.234648
   4       -6.234648
   5       -3.420835
   6       -3.420835
   7       -3.420835
   8       -0.907388
   9       -0.494895
  10       -0.494895
  11       -0.494895
  12        0.961276
  13        0.961276
  14        0.961276
  15        2.658717
  16        2.658717
  17        4.379911
  18        4.379911
  19        4.379911
  20        4.451179
 
  0.4166667E+00  0.2500000E+00  0.2500000E+00  0.1111111E+00
   1       -7.655093
   2       -7.022033
   3       -6.104623
   4       -6.104623
   5       -3.771026
   6       -3.771026
   7       -2.701090
   8       -1.876917
   9       -0.435417
  10       -0.435417
  11        0.661207
  12        1.029022
  13        1.029022
  14        1.391753
  15        1.943718
  16        1.988854
  17        4.878490
  18        4.977810
  19        5.256543
  20        5.256543
 
  0.4166667E+00  0.4166667E+00  0.2500000E+00  0.1111111E+00
   1       -7.253795
   2       -6.700964
   3       -6.700964
   4       -6.338183
   5       -3.804319
   6       -3.396254
   7       -3.396254
   8       -2.742889
   9        0.064885
  10        0.520189
  11        0.520189
  12        1.316520
  13        1.658456
  14        1.695491
  15        1.695491
  16        2.363791
  17        4.786386
  18        4.984660
  19        5.353416
  20        5.353461
 
  0.4166667E+00  0.4166667E+00  0.4166667E+00  0.3703704E-01
   1       -6.928925
   2       -6.565145
   3       -6.565145
   4       -6.565145
   5       -3.906630
   6       -3.906630
   7       -3.906630
   8       -3.499879
   9        1.376706
  10        1.376706
  11        1.376706
  12        1.904592
  13        1.904592
  14        1.904592
  15        2.171047
  16        2.171047
  17        4.042883
  18        4.670145
  19        4.670145
  20        4.670145
