       N       E                     dE             d eps       ncg     rms          rms(c)
DAV:   1     0.732057025418E+02    0.73206E+02   -0.10202E+04   400   0.118E+03
DAV:   2    -0.191018633902E+02   -0.92308E+02   -0.91899E+02   620   0.107E+02
DAV:   3    -0.210106204732E+02   -0.19088E+01   -0.19061E+01   480   0.218E+01
DAV:   4    -0.210178982172E+02   -0.72777E-02   -0.72772E-02   700   0.133E+00
DAV:   5    -0.210178987871E+02   -0.56992E-06   -0.56985E-06   500   0.108E-02    0.278E+00
RMM:   6    -0.209352189902E+02    0.82680E-01   -0.13489E-02   400   0.105E+00    0.172E+00
RMM:   7    -0.208926214769E+02    0.42598E-01   -0.35860E-02   400   0.166E+00    0.985E-02
RMM:   8    -0.208928811711E+02   -0.25969E-03   -0.52629E-04   400   0.131E-01    0.196E-02
RMM:   9    -0.208929183156E+02   -0.37144E-04   -0.70186E-05   400   0.469E-02    0.750E-03
RMM:  10    -0.208929289625E+02   -0.10647E-04   -0.66924E-06   400   0.120E-02    0.119E-03
RMM:  11    -0.208929294628E+02   -0.50037E-06   -0.52764E-07   243   0.355E-03
   1 F= -.20892929E+02 E0= -.20878968E+02  d E =-.208929E+02
