 vasp.5.3.3 18Dez12 (build Dec 13 2014 13:36:02) complex                        
  
 executed on             LinuxIFC date 2018.11.28  00:58:57
 running on   20 total cores
 distrk:  each k-point on   20 cores,    1 groups
 distr:  one band on NCORES_PER_BAND=   1 cores,   20 groups


--------------------------------------------------------------------------------------------------------


 INCAR:
 POTCAR:   PAW_PBE Ga 08Apr2002                   

 ----------------------------------------------------------------------------- 
|                                                                             |
|           W    W    AA    RRRRR   N    N  II  N    N   GGGG   !!!           |
|           W    W   A  A   R    R  NN   N  II  NN   N  G    G  !!!           |
|           W    W  A    A  R    R  N N  N  II  N N  N  G       !!!           |
|           W WW W  AAAAAA  RRRRR   N  N N  II  N  N N  G  GGG   !            |
|           WW  WW  A    A  R   R   N   NN  II  N   NN  G    G                |
|           W    W  A    A  R    R  N    N  II  N    N   GGGG   !!!           |
|                                                                             |
|      For optimal performance we recommend that you set                      |
|        NPAR = 4 - approx SQRT( number of cores)                             |
|      (number of cores/NPAR must be integer)                                 |
|      This setting will greatly improve the performance of VASP for DFT.     |
|      The default NPAR=number of cores might be grossly inefficient          |
|      on modern multi-core architectures or massively parallel machines.     |
|      Do your own testing.                                                   |
|      Unfortunately you need to use the default for hybrid, GW and RPA       |
|      calculations.                                                          |
|                                                                             |
 ----------------------------------------------------------------------------- 

 POTCAR:   PAW_PBE Ga 08Apr2002                   
   VRHFIN =Ga: s2p1                                                             
   LEXCH  = PE                                                                  
   EATOM  =    58.8688 eV,    4.3267 Ry                                         
                                                                                
   TITEL  = PAW_PBE Ga 08Apr2002                                                
   LULTRA =        F    use ultrasoft PP ?                                      
   IUNSCR =        1    unscreen: 0-lin 1-nonlin 2-no                           
   RPACOR =    2.170    partial core radius                                     
   POMASS =   69.723; ZVAL   =    3.000    mass and valenz                      
   RCORE  =    2.600    outmost cutoff radius                                   
   RWIGS  =    2.650; RWIGS  =    1.402    wigner-seitz radius (au A)           
   ENMAX  =  134.678; ENMIN  =  101.009 eV                                      
   ICORE  =        3    local potential                                         
   LCOR   =        T    correct aug charges                                     
   LPAW   =        T    paw PP                                                  
   EAUG   =  320.264                                                            
   DEXC   =    -.116                                                            
   RMAX   =    3.973    core radius for proj-oper                               
   RAUG   =    1.300    factor for augmentation sphere                          
   RDEP   =    2.684    radius for radial grids                                 
   QCUT   =   -3.146; QGAM   =    6.292    optimization parameters              
                                                                                
   Description                                                                  
     l     E      TYP  RCUT    TYP  RCUT                                        
     0   .000     23  2.600                                                     
     0   .000     23  2.600                                                     
     1   .000     23  2.600                                                     
     1   .000     23  2.600                                                     
     2   .100     23  2.600                                                     
     3  -.100      7  2.600                                                     
  local pseudopotential read in
  partial core-charges read in
  atomic valenz-charges read in
  non local Contribution for L=           0  read in
    real space projection operators read in
  non local Contribution for L=           0  read in
    real space projection operators read in
  non local Contribution for L=           1  read in
    real space projection operators read in
  non local Contribution for L=           1  read in
    real space projection operators read in
  non local Contribution for L=           2  read in
    real space projection operators read in
    PAW grid and wavefunctions read in
 
   number of l-projection  operators is LMAX  =           5
   number of lm-projection operators is LMMAX =          13
 
 PAW_PBE Ga 08Apr2002                   :
 energy of atom  1       EATOM=  -58.8688
 kinetic energy error for atom=    0.0000 (will be added to EATOM!!)
 
 
 POSCAR: Ge8                                     
  positions in direct lattice
  No initial velocities read in
 exchange correlation table for  LEXCH =        8
   RHO(1)=    0.500       N(1)  =     2000
   RHO(2)=  100.500       N(2)  =     4000
 


--------------------------------------------------------------------------------------------------------


 ion  position               nearest neighbor table
   1  0.750  0.750  0.750-   2 2.50   4 2.50   6 2.50   8 2.50
   2  0.500  0.000  0.000-   1 2.50   3 2.50   5 2.50   7 2.50
   3  0.750  0.250  0.250-   2 2.50   4 2.50   6 2.50   8 2.50
   4  0.500  0.500  0.500-   1 2.50   3 2.50   5 2.50   7 2.50
   5  0.250  0.750  0.250-   2 2.50   4 2.50   6 2.50   8 2.50
   6  0.000  0.000  0.500-   1 2.50   3 2.50   5 2.50   7 2.50
   7  0.250  0.250  0.750-   2 2.50   4 2.50   6 2.50   8 2.50
   8  0.000  0.500  0.000-   1 2.50   3 2.50   5 2.50   7 2.50
 
  LATTYP: Found a simple cubic cell.
 ALAT       =     5.7628630000
  
  Lattice vectors:
  
 A1 = (   5.7628630000,   0.0000000000,   0.0000000000)
 A2 = (   0.0000000000,   5.7628630000,   0.0000000000)
 A3 = (   0.0000000000,   0.0000000000,   5.7628630000)


Analysis of symmetry for initial positions (statically):
=====================================================================
 Subroutine PRICEL returns following result:
 
  LATTYP: Found a face centered cubic cell.
 ALAT       =     5.7628630000
  
  Lattice vectors:
  
 A1 = (   2.8814315000,   2.8814315000,  -0.0000000000)
 A2 = (   2.8814315000,   0.0000000000,  -2.8814315000)
 A3 = (   0.0000000000,   2.8814315000,  -2.8814315000)
 
   4 primitive cells build up your supercell.
 

 Routine SETGRP: Setting up the symmetry group for a 
 simple cubic supercell.


 Subroutine GETGRP returns: Found 48 space group operations
 (whereof 24 operations were pure point group operations)
 out of a pool of 48 trial point group operations.


The static configuration has the point symmetry T_d .
 The point group associated with its full space group is O_h .


Analysis of symmetry for dynamics (positions and initial velocities):
=====================================================================
 Subroutine PRICEL returns following result:
 
  LATTYP: Found a face centered cubic cell.
 ALAT       =     5.7628630000
  
  Lattice vectors:
  
 A1 = (   2.8814315000,   2.8814315000,  -0.0000000000)
 A2 = (   2.8814315000,   0.0000000000,  -2.8814315000)
 A3 = (   0.0000000000,   2.8814315000,  -2.8814315000)
 
   4 primitive cells build up your supercell.
 

 Routine SETGRP: Setting up the symmetry group for a 
 simple cubic supercell.


 Subroutine GETGRP returns: Found 48 space group operations
 (whereof 24 operations were pure point group operations)
 out of a pool of 48 trial point group operations.


The dynamic configuration has the point symmetry T_d .
 The point group associated with its full space group is O_h .


Analysis of constrained symmetry for selective dynamics:
=====================================================================
 Subroutine PRICEL returns following result:
 
  LATTYP: Found a face centered cubic cell.
 ALAT       =     5.7628630000
  
  Lattice vectors:
  
 A1 = (   2.8814315000,   2.8814315000,  -0.0000000000)
 A2 = (   2.8814315000,   0.0000000000,  -2.8814315000)
 A3 = (   0.0000000000,   2.8814315000,  -2.8814315000)
 
   4 primitive cells build up your supercell.
 

 Routine SETGRP: Setting up the symmetry group for a 
 simple cubic supercell.


 Subroutine GETGRP returns: Found 48 space group operations
 (whereof 24 operations were pure point group operations)
 out of a pool of 48 trial point group operations.


The constrained configuration has the point symmetry T_d .
 The point group associated with its full space group is O_h .


 irot  :   1
 --------------------------------------------------------------------
 isymop:   1   0   0
           0   1   0
           0   0   1

 gtrans:     0.0000000     0.0000000    -0.0000000

 ptrans:     0.0000000     0.0000000     0.0000000
 rotmap:
 (   1->   1)  (   2->   2)  (   3->   3)  (   4->   4)  (   5->   5) 
 (   6->   6)  (   7->   7)  (   8->   8) 

 ptrans:     0.5000000     0.5000000     0.0000000
 rotmap:
 (   1->   7)  (   2->   8)  (   3->   5)  (   4->   6)  (   5->   3) 
 (   6->   4)  (   7->   1)  (   8->   2) 

 ptrans:     0.5000000     0.0000000     0.5000000
 rotmap:
 (   1->   5)  (   2->   6)  (   3->   7)  (   4->   8)  (   5->   1) 
 (   6->   2)  (   7->   3)  (   8->   4) 

 ptrans:     0.0000000     0.5000000     0.5000000
 rotmap:
 (   1->   3)  (   2->   4)  (   3->   1)  (   4->   2)  (   5->   7) 
 (   6->   8)  (   7->   5)  (   8->   6) 


 irot  :   2
 --------------------------------------------------------------------
 isymop:   0   0   1
           1   0   0
           0   1   0

 gtrans:     0.0000000     0.0000000    -0.0000000

 ptrans:     0.0000000     0.0000000     0.0000000
 rotmap:
 (   1->   1)  (   2->   8)  (   3->   5)  (   4->   4)  (   5->   7) 
 (   6->   2)  (   7->   3)  (   8->   6) 

 ptrans:     0.5000000     0.5000000     0.0000000
 rotmap:
 (   1->   7)  (   2->   2)  (   3->   3)  (   4->   6)  (   5->   1) 
 (   6->   8)  (   7->   5)  (   8->   4) 

 ptrans:     0.5000000     0.0000000     0.5000000
 rotmap:
 (   1->   5)  (   2->   4)  (   3->   1)  (   4->   8)  (   5->   3) 
 (   6->   6)  (   7->   7)  (   8->   2) 

 ptrans:     0.0000000     0.5000000     0.5000000
 rotmap:
 (   1->   3)  (   2->   6)  (   3->   7)  (   4->   2)  (   5->   5) 
 (   6->   4)  (   7->   1)  (   8->   8) 


 irot  :   3
 --------------------------------------------------------------------
 isymop:   0   1   0
           0   0   1
           1   0   0

 gtrans:     0.0000000     0.0000000    -0.0000000

 ptrans:     0.0000000     0.0000000     0.0000000
 rotmap:
 (   1->   1)  (   2->   6)  (   3->   7)  (   4->   4)  (   5->   3) 
 (   6->   8)  (   7->   5)  (   8->   2) 

 ptrans:     0.5000000     0.5000000     0.0000000
 rotmap:
 (   1->   7)  (   2->   4)  (   3->   1)  (   4->   6)  (   5->   5) 
 (   6->   2)  (   7->   3)  (   8->   8) 

 ptrans:     0.5000000     0.0000000     0.5000000
 rotmap:
 (   1->   5)  (   2->   2)  (   3->   3)  (   4->   8)  (   5->   7) 
 (   6->   4)  (   7->   1)  (   8->   6) 

 ptrans:     0.0000000     0.5000000     0.5000000
 rotmap:
 (   1->   3)  (   2->   8)  (   3->   5)  (   4->   2)  (   5->   1) 
 (   6->   6)  (   7->   7)  (   8->   4) 


 irot  :   4
 --------------------------------------------------------------------
 isymop:   0   1   0
          -1   0   0
           0   0  -1

 gtrans:     0.0000000     0.0000000    -0.0000000

 ptrans:     0.0000000     0.0000000     0.0000000
 rotmap:
 (   1->   3)  (   2->   8)  (   3->   7)  (   4->   4)  (   5->   1) 
 (   6->   6)  (   7->   5)  (   8->   2) 

 ptrans:     0.5000000     0.5000000     0.0000000
 rotmap:
 (   1->   5)  (   2->   2)  (   3->   1)  (   4->   6)  (   5->   7) 
 (   6->   4)  (   7->   3)  (   8->   8) 

 ptrans:     0.5000000     0.0000000     0.5000000
 rotmap:
 (   1->   7)  (   2->   4)  (   3->   3)  (   4->   8)  (   5->   5) 
 (   6->   2)  (   7->   1)  (   8->   6) 

 ptrans:     0.0000000     0.5000000     0.5000000
 rotmap:
 (   1->   1)  (   2->   6)  (   3->   5)  (   4->   2)  (   5->   3) 
 (   6->   8)  (   7->   7)  (   8->   4) 


 irot  :   5
 --------------------------------------------------------------------
 isymop:   1   0   0
           0   0  -1
           0  -1   0

 gtrans:     0.0000000     0.0000000    -0.0000000

 ptrans:     0.0000000     0.0000000     0.0000000
 rotmap:
 (   1->   3)  (   2->   2)  (   3->   1)  (   4->   4)  (   5->   5) 
 (   6->   8)  (   7->   7)  (   8->   6) 

 ptrans:     0.5000000     0.5000000     0.0000000
 rotmap:
 (   1->   5)  (   2->   8)  (   3->   7)  (   4->   6)  (   5->   3) 
 (   6->   2)  (   7->   1)  (   8->   4) 

 ptrans:     0.5000000     0.0000000     0.5000000
 rotmap:
 (   1->   7)  (   2->   6)  (   3->   5)  (   4->   8)  (   5->   1) 
 (   6->   4)  (   7->   3)  (   8->   2) 

 ptrans:     0.0000000     0.5000000     0.5000000
 rotmap:
 (   1->   1)  (   2->   4)  (   3->   3)  (   4->   2)  (   5->   7) 
 (   6->   6)  (   7->   5)  (   8->   8) 


 irot  :   6
 --------------------------------------------------------------------
 isymop:   0   0   1
           0  -1   0
          -1   0   0

 gtrans:     0.0000000     0.0000000    -0.0000000

 ptrans:     0.0000000     0.0000000     0.0000000
 rotmap:
 (   1->   3)  (   2->   6)  (   3->   5)  (   4->   4)  (   5->   7) 
 (   6->   2)  (   7->   1)  (   8->   8) 

 ptrans:     0.5000000     0.5000000     0.0000000
 rotmap:
 (   1->   5)  (   2->   4)  (   3->   3)  (   4->   6)  (   5->   1) 
 (   6->   8)  (   7->   7)  (   8->   2) 

 ptrans:     0.5000000     0.0000000     0.5000000
 rotmap:
 (   1->   7)  (   2->   2)  (   3->   1)  (   4->   8)  (   5->   3) 
 (   6->   6)  (   7->   5)  (   8->   4) 

 ptrans:     0.0000000     0.5000000     0.5000000
 rotmap:
 (   1->   1)  (   2->   8)  (   3->   7)  (   4->   2)  (   5->   5) 
 (   6->   4)  (   7->   3)  (   8->   6) 


 irot  :   7
 --------------------------------------------------------------------
 isymop:  -1   0   0
           0  -1   0
           0   0   1

 gtrans:     0.0000000     0.0000000    -0.0000000

 ptrans:     0.0000000     0.0000000     0.0000000
 rotmap:
 (   1->   7)  (   2->   2)  (   3->   5)  (   4->   4)  (   5->   3) 
 (   6->   6)  (   7->   1)  (   8->   8) 

 ptrans:     0.5000000     0.5000000     0.0000000
 rotmap:
 (   1->   1)  (   2->   8)  (   3->   3)  (   4->   6)  (   5->   5) 
 (   6->   4)  (   7->   7)  (   8->   2) 

 ptrans:     0.5000000     0.0000000     0.5000000
 rotmap:
 (   1->   3)  (   2->   6)  (   3->   1)  (   4->   8)  (   5->   7) 
 (   6->   2)  (   7->   5)  (   8->   4) 

 ptrans:     0.0000000     0.5000000     0.5000000
 rotmap:
 (   1->   5)  (   2->   4)  (   3->   7)  (   4->   2)  (   5->   1) 
 (   6->   8)  (   7->   3)  (   8->   6) 


 irot  :   8
 --------------------------------------------------------------------
 isymop:   0   0  -1
          -1   0   0
           0   1   0

 gtrans:     0.0000000     0.0000000    -0.0000000

 ptrans:     0.0000000     0.0000000     0.0000000
 rotmap:
 (   1->   7)  (   2->   8)  (   3->   3)  (   4->   4)  (   5->   1) 
 (   6->   2)  (   7->   5)  (   8->   6) 

 ptrans:     0.5000000     0.5000000     0.0000000
 rotmap:
 (   1->   1)  (   2->   2)  (   3->   5)  (   4->   6)  (   5->   7) 
 (   6->   8)  (   7->   3)  (   8->   4) 

 ptrans:     0.5000000     0.0000000     0.5000000
 rotmap:
 (   1->   3)  (   2->   4)  (   3->   7)  (   4->   8)  (   5->   5) 
 (   6->   6)  (   7->   1)  (   8->   2) 

 ptrans:     0.0000000     0.5000000     0.5000000
 rotmap:
 (   1->   5)  (   2->   6)  (   3->   1)  (   4->   2)  (   5->   3) 
 (   6->   4)  (   7->   7)  (   8->   8) 


 irot  :   9
 --------------------------------------------------------------------
 isymop:   0  -1   0
           0   0  -1
           1   0   0

 gtrans:     0.0000000     0.0000000    -0.0000000

 ptrans:     0.0000000     0.0000000     0.0000000
 rotmap:
 (   1->   7)  (   2->   6)  (   3->   1)  (   4->   4)  (   5->   5) 
 (   6->   8)  (   7->   3)  (   8->   2) 

 ptrans:     0.5000000     0.5000000     0.0000000
 rotmap:
 (   1->   1)  (   2->   4)  (   3->   7)  (   4->   6)  (   5->   3) 
 (   6->   2)  (   7->   5)  (   8->   8) 

 ptrans:     0.5000000     0.0000000     0.5000000
 rotmap:
 (   1->   3)  (   2->   2)  (   3->   5)  (   4->   8)  (   5->   1) 
 (   6->   4)  (   7->   7)  (   8->   6) 

 ptrans:     0.0000000     0.5000000     0.5000000
 rotmap:
 (   1->   5)  (   2->   8)  (   3->   3)  (   4->   2)  (   5->   7) 
 (   6->   6)  (   7->   1)  (   8->   4) 


 irot  :  10
 --------------------------------------------------------------------
 isymop:   0  -1   0
           1   0   0
           0   0  -1

 gtrans:     0.0000000     0.0000000    -0.0000000

 ptrans:     0.0000000     0.0000000     0.0000000
 rotmap:
 (   1->   5)  (   2->   8)  (   3->   1)  (   4->   4)  (   5->   7) 
 (   6->   6)  (   7->   3)  (   8->   2) 

 ptrans:     0.5000000     0.5000000     0.0000000
 rotmap:
 (   1->   3)  (   2->   2)  (   3->   7)  (   4->   6)  (   5->   1) 
 (   6->   4)  (   7->   5)  (   8->   8) 

 ptrans:     0.5000000     0.0000000     0.5000000
 rotmap:
 (   1->   1)  (   2->   4)  (   3->   5)  (   4->   8)  (   5->   3) 
 (   6->   2)  (   7->   7)  (   8->   6) 

 ptrans:     0.0000000     0.5000000     0.5000000
 rotmap:
 (   1->   7)  (   2->   6)  (   3->   3)  (   4->   2)  (   5->   5) 
 (   6->   8)  (   7->   1)  (   8->   4) 


 irot  :  11
 --------------------------------------------------------------------
 isymop:  -1   0   0
           0   0   1
           0  -1   0

 gtrans:     0.0000000     0.0000000    -0.0000000

 ptrans:     0.0000000     0.0000000     0.0000000
 rotmap:
 (   1->   5)  (   2->   2)  (   3->   7)  (   4->   4)  (   5->   3) 
 (   6->   8)  (   7->   1)  (   8->   6) 

 ptrans:     0.5000000     0.5000000     0.0000000
 rotmap:
 (   1->   3)  (   2->   8)  (   3->   1)  (   4->   6)  (   5->   5) 
 (   6->   2)  (   7->   7)  (   8->   4) 

 ptrans:     0.5000000     0.0000000     0.5000000
 rotmap:
 (   1->   1)  (   2->   6)  (   3->   3)  (   4->   8)  (   5->   7) 
 (   6->   4)  (   7->   5)  (   8->   2) 

 ptrans:     0.0000000     0.5000000     0.5000000
 rotmap:
 (   1->   7)  (   2->   4)  (   3->   5)  (   4->   2)  (   5->   1) 
 (   6->   6)  (   7->   3)  (   8->   8) 


 irot  :  12
 --------------------------------------------------------------------
 isymop:   0   0  -1
           0   1   0
          -1   0   0

 gtrans:     0.0000000     0.0000000    -0.0000000

 ptrans:     0.0000000     0.0000000     0.0000000
 rotmap:
 (   1->   5)  (   2->   6)  (   3->   3)  (   4->   4)  (   5->   1) 
 (   6->   2)  (   7->   7)  (   8->   8) 

 ptrans:     0.5000000     0.5000000     0.0000000
 rotmap:
 (   1->   3)  (   2->   4)  (   3->   5)  (   4->   6)  (   5->   7) 
 (   6->   8)  (   7->   1)  (   8->   2) 

 ptrans:     0.5000000     0.0000000     0.5000000
 rotmap:
 (   1->   1)  (   2->   2)  (   3->   7)  (   4->   8)  (   5->   5) 
 (   6->   6)  (   7->   3)  (   8->   4) 

 ptrans:     0.0000000     0.5000000     0.5000000
 rotmap:
 (   1->   7)  (   2->   8)  (   3->   1)  (   4->   2)  (   5->   3) 
 (   6->   4)  (   7->   5)  (   8->   6) 


 irot  :  13
 --------------------------------------------------------------------
 isymop:   0   0   1
          -1   0   0
           0  -1   0

 gtrans:     0.0000000     0.0000000    -0.0000000

 ptrans:     0.0000000     0.0000000     0.0000000
 rotmap:
 (   1->   3)  (   2->   8)  (   3->   7)  (   4->   4)  (   5->   5) 
 (   6->   2)  (   7->   1)  (   8->   6) 

 ptrans:     0.5000000     0.5000000     0.0000000
 rotmap:
 (   1->   5)  (   2->   2)  (   3->   1)  (   4->   6)  (   5->   3) 
 (   6->   8)  (   7->   7)  (   8->   4) 

 ptrans:     0.5000000     0.0000000     0.5000000
 rotmap:
 (   1->   7)  (   2->   4)  (   3->   3)  (   4->   8)  (   5->   1) 
 (   6->   6)  (   7->   5)  (   8->   2) 

 ptrans:     0.0000000     0.5000000     0.5000000
 rotmap:
 (   1->   1)  (   2->   6)  (   3->   5)  (   4->   2)  (   5->   7) 
 (   6->   4)  (   7->   3)  (   8->   8) 


 irot  :  14
 --------------------------------------------------------------------
 isymop:   0   1   0
           0   0  -1
          -1   0   0

 gtrans:     0.0000000     0.0000000    -0.0000000

 ptrans:     0.0000000     0.0000000     0.0000000
 rotmap:
 (   1->   3)  (   2->   6)  (   3->   5)  (   4->   4)  (   5->   1) 
 (   6->   8)  (   7->   7)  (   8->   2) 

 ptrans:     0.5000000     0.5000000     0.0000000
 rotmap:
 (   1->   5)  (   2->   4)  (   3->   3)  (   4->   6)  (   5->   7) 
 (   6->   2)  (   7->   1)  (   8->   8) 

 ptrans:     0.5000000     0.0000000     0.5000000
 rotmap:
 (   1->   7)  (   2->   2)  (   3->   1)  (   4->   8)  (   5->   5) 
 (   6->   4)  (   7->   3)  (   8->   6) 

 ptrans:     0.0000000     0.5000000     0.5000000
 rotmap:
 (   1->   1)  (   2->   8)  (   3->   7)  (   4->   2)  (   5->   3) 
 (   6->   6)  (   7->   5)  (   8->   4) 


 irot  :  15
 --------------------------------------------------------------------
 isymop:   1   0   0
           0  -1   0
           0   0  -1

 gtrans:     0.0000000     0.0000000    -0.0000000

 ptrans:     0.0000000     0.0000000     0.0000000
 rotmap:
 (   1->   3)  (   2->   2)  (   3->   1)  (   4->   4)  (   5->   7) 
 (   6->   6)  (   7->   5)  (   8->   8) 

 ptrans:     0.5000000     0.5000000     0.0000000
 rotmap:
 (   1->   5)  (   2->   8)  (   3->   7)  (   4->   6)  (   5->   1) 
 (   6->   4)  (   7->   3)  (   8->   2) 

 ptrans:     0.5000000     0.0000000     0.5000000
 rotmap:
 (   1->   7)  (   2->   6)  (   3->   5)  (   4->   8)  (   5->   3) 
 (   6->   2)  (   7->   1)  (   8->   4) 

 ptrans:     0.0000000     0.5000000     0.5000000
 rotmap:
 (   1->   1)  (   2->   4)  (   3->   3)  (   4->   2)  (   5->   5) 
 (   6->   8)  (   7->   7)  (   8->   6) 


 irot  :  16
 --------------------------------------------------------------------
 isymop:   0   0  -1
           0  -1   0
           1   0   0

 gtrans:     0.0000000     0.0000000    -0.0000000

 ptrans:     0.0000000     0.0000000     0.0000000
 rotmap:
 (   1->   7)  (   2->   6)  (   3->   1)  (   4->   4)  (   5->   3) 
 (   6->   2)  (   7->   5)  (   8->   8) 

 ptrans:     0.5000000     0.5000000     0.0000000
 rotmap:
 (   1->   1)  (   2->   4)  (   3->   7)  (   4->   6)  (   5->   5) 
 (   6->   8)  (   7->   3)  (   8->   2) 

 ptrans:     0.5000000     0.0000000     0.5000000
 rotmap:
 (   1->   3)  (   2->   2)  (   3->   5)  (   4->   8)  (   5->   7) 
 (   6->   6)  (   7->   1)  (   8->   4) 

 ptrans:     0.0000000     0.5000000     0.5000000
 rotmap:
 (   1->   5)  (   2->   8)  (   3->   3)  (   4->   2)  (   5->   1) 
 (   6->   4)  (   7->   7)  (   8->   6) 


 irot  :  17
 --------------------------------------------------------------------
 isymop:   0  -1   0
          -1   0   0
           0   0   1

 gtrans:     0.0000000     0.0000000    -0.0000000

 ptrans:     0.0000000     0.0000000     0.0000000
 rotmap:
 (   1->   7)  (   2->   8)  (   3->   3)  (   4->   4)  (   5->   5) 
 (   6->   6)  (   7->   1)  (   8->   2) 

 ptrans:     0.5000000     0.5000000     0.0000000
 rotmap:
 (   1->   1)  (   2->   2)  (   3->   5)  (   4->   6)  (   5->   3) 
 (   6->   4)  (   7->   7)  (   8->   8) 

 ptrans:     0.5000000     0.0000000     0.5000000
 rotmap:
 (   1->   3)  (   2->   4)  (   3->   7)  (   4->   8)  (   5->   1) 
 (   6->   2)  (   7->   5)  (   8->   6) 

 ptrans:     0.0000000     0.5000000     0.5000000
 rotmap:
 (   1->   5)  (   2->   6)  (   3->   1)  (   4->   2)  (   5->   7) 
 (   6->   8)  (   7->   3)  (   8->   4) 


 irot  :  18
 --------------------------------------------------------------------
 isymop:  -1   0   0
           0   0  -1
           0   1   0

 gtrans:     0.0000000     0.0000000    -0.0000000

 ptrans:     0.0000000     0.0000000     0.0000000
 rotmap:
 (   1->   7)  (   2->   2)  (   3->   5)  (   4->   4)  (   5->   1) 
 (   6->   8)  (   7->   3)  (   8->   6) 

 ptrans:     0.5000000     0.5000000     0.0000000
 rotmap:
 (   1->   1)  (   2->   8)  (   3->   3)  (   4->   6)  (   5->   7) 
 (   6->   2)  (   7->   5)  (   8->   4) 

 ptrans:     0.5000000     0.0000000     0.5000000
 rotmap:
 (   1->   3)  (   2->   6)  (   3->   1)  (   4->   8)  (   5->   5) 
 (   6->   4)  (   7->   7)  (   8->   2) 

 ptrans:     0.0000000     0.5000000     0.5000000
 rotmap:
 (   1->   5)  (   2->   4)  (   3->   7)  (   4->   2)  (   5->   3) 
 (   6->   6)  (   7->   1)  (   8->   8) 


 irot  :  19
 --------------------------------------------------------------------
 isymop:   0  -1   0
           0   0   1
          -1   0   0

 gtrans:     0.0000000     0.0000000    -0.0000000

 ptrans:     0.0000000     0.0000000     0.0000000
 rotmap:
 (   1->   5)  (   2->   6)  (   3->   3)  (   4->   4)  (   5->   7) 
 (   6->   8)  (   7->   1)  (   8->   2) 

 ptrans:     0.5000000     0.5000000     0.0000000
 rotmap:
 (   1->   3)  (   2->   4)  (   3->   5)  (   4->   6)  (   5->   1) 
 (   6->   2)  (   7->   7)  (   8->   8) 

 ptrans:     0.5000000     0.0000000     0.5000000
 rotmap:
 (   1->   1)  (   2->   2)  (   3->   7)  (   4->   8)  (   5->   3) 
 (   6->   4)  (   7->   5)  (   8->   6) 

 ptrans:     0.0000000     0.5000000     0.5000000
 rotmap:
 (   1->   7)  (   2->   8)  (   3->   1)  (   4->   2)  (   5->   5) 
 (   6->   6)  (   7->   3)  (   8->   4) 


 irot  :  20
 --------------------------------------------------------------------
 isymop:  -1   0   0
           0   1   0
           0   0  -1

 gtrans:     0.0000000     0.0000000    -0.0000000

 ptrans:     0.0000000     0.0000000     0.0000000
 rotmap:
 (   1->   5)  (   2->   2)  (   3->   7)  (   4->   4)  (   5->   1) 
 (   6->   6)  (   7->   3)  (   8->   8) 

 ptrans:     0.5000000     0.5000000     0.0000000
 rotmap:
 (   1->   3)  (   2->   8)  (   3->   1)  (   4->   6)  (   5->   7) 
 (   6->   4)  (   7->   5)  (   8->   2) 

 ptrans:     0.5000000     0.0000000     0.5000000
 rotmap:
 (   1->   1)  (   2->   6)  (   3->   3)  (   4->   8)  (   5->   5) 
 (   6->   2)  (   7->   7)  (   8->   4) 

 ptrans:     0.0000000     0.5000000     0.5000000
 rotmap:
 (   1->   7)  (   2->   4)  (   3->   5)  (   4->   2)  (   5->   3) 
 (   6->   8)  (   7->   1)  (   8->   6) 


 irot  :  21
 --------------------------------------------------------------------
 isymop:   0   0  -1
           1   0   0
           0  -1   0

 gtrans:     0.0000000     0.0000000    -0.0000000

 ptrans:     0.0000000     0.0000000     0.0000000
 rotmap:
 (   1->   5)  (   2->   8)  (   3->   1)  (   4->   4)  (   5->   3) 
 (   6->   2)  (   7->   7)  (   8->   6) 

 ptrans:     0.5000000     0.5000000     0.0000000
 rotmap:
 (   1->   3)  (   2->   2)  (   3->   7)  (   4->   6)  (   5->   5) 
 (   6->   8)  (   7->   1)  (   8->   4) 

 ptrans:     0.5000000     0.0000000     0.5000000
 rotmap:
 (   1->   1)  (   2->   4)  (   3->   5)  (   4->   8)  (   5->   7) 
 (   6->   6)  (   7->   3)  (   8->   2) 

 ptrans:     0.0000000     0.5000000     0.5000000
 rotmap:
 (   1->   7)  (   2->   6)  (   3->   3)  (   4->   2)  (   5->   1) 
 (   6->   4)  (   7->   5)  (   8->   8) 


 irot  :  22
 --------------------------------------------------------------------
 isymop:   1   0   0
           0   0   1
           0   1   0

 gtrans:     0.0000000     0.0000000    -0.0000000

 ptrans:     0.0000000     0.0000000     0.0000000
 rotmap:
 (   1->   1)  (   2->   2)  (   3->   3)  (   4->   4)  (   5->   7) 
 (   6->   8)  (   7->   5)  (   8->   6) 

 ptrans:     0.5000000     0.5000000     0.0000000
 rotmap:
 (   1->   7)  (   2->   8)  (   3->   5)  (   4->   6)  (   5->   1) 
 (   6->   2)  (   7->   3)  (   8->   4) 

 ptrans:     0.5000000     0.0000000     0.5000000
 rotmap:
 (   1->   5)  (   2->   6)  (   3->   7)  (   4->   8)  (   5->   3) 
 (   6->   4)  (   7->   1)  (   8->   2) 

 ptrans:     0.0000000     0.5000000     0.5000000
 rotmap:
 (   1->   3)  (   2->   4)  (   3->   1)  (   4->   2)  (   5->   5) 
 (   6->   6)  (   7->   7)  (   8->   8) 


 irot  :  23
 --------------------------------------------------------------------
 isymop:   0   1   0
           1   0   0
           0   0   1

 gtrans:     0.0000000     0.0000000    -0.0000000

 ptrans:     0.0000000     0.0000000     0.0000000
 rotmap:
 (   1->   1)  (   2->   8)  (   3->   5)  (   4->   4)  (   5->   3) 
 (   6->   6)  (   7->   7)  (   8->   2) 

 ptrans:     0.5000000     0.5000000     0.0000000
 rotmap:
 (   1->   7)  (   2->   2)  (   3->   3)  (   4->   6)  (   5->   5) 
 (   6->   4)  (   7->   1)  (   8->   8) 

 ptrans:     0.5000000     0.0000000     0.5000000
 rotmap:
 (   1->   5)  (   2->   4)  (   3->   1)  (   4->   8)  (   5->   7) 
 (   6->   2)  (   7->   3)  (   8->   6) 

 ptrans:     0.0000000     0.5000000     0.5000000
 rotmap:
 (   1->   3)  (   2->   6)  (   3->   7)  (   4->   2)  (   5->   1) 
 (   6->   8)  (   7->   5)  (   8->   4) 


 irot  :  24
 --------------------------------------------------------------------
 isymop:   0   0   1
           0   1   0
           1   0   0

 gtrans:     0.0000000     0.0000000    -0.0000000

 ptrans:     0.0000000     0.0000000     0.0000000
 rotmap:
 (   1->   1)  (   2->   6)  (   3->   7)  (   4->   4)  (   5->   5) 
 (   6->   2)  (   7->   3)  (   8->   8) 

 ptrans:     0.5000000     0.5000000     0.0000000
 rotmap:
 (   1->   7)  (   2->   4)  (   3->   1)  (   4->   6)  (   5->   3) 
 (   6->   8)  (   7->   5)  (   8->   2) 

 ptrans:     0.5000000     0.0000000     0.5000000
 rotmap:
 (   1->   5)  (   2->   2)  (   3->   3)  (   4->   8)  (   5->   1) 
 (   6->   6)  (   7->   7)  (   8->   4) 

 ptrans:     0.0000000     0.5000000     0.5000000
 rotmap:
 (   1->   3)  (   2->   8)  (   3->   5)  (   4->   2)  (   5->   7) 
 (   6->   4)  (   7->   1)  (   8->   6) 


 irot  :  25
 --------------------------------------------------------------------
 isymop:  -1   0   0
           0  -1   0
           0   0  -1

 gtrans:     0.7500000     0.7500000    -0.7500000

 ptrans:     0.0000000     0.0000000     0.0000000
 rotmap:
 (   1->   6)  (   2->   5)  (   3->   8)  (   4->   7)  (   5->   2) 
 (   6->   1)  (   7->   4)  (   8->   3) 

 ptrans:     0.5000000     0.5000000     0.0000000
 rotmap:
 (   1->   4)  (   2->   3)  (   3->   2)  (   4->   1)  (   5->   8) 
 (   6->   7)  (   7->   6)  (   8->   5) 

 ptrans:     0.5000000     0.0000000     0.5000000
 rotmap:
 (   1->   2)  (   2->   1)  (   3->   4)  (   4->   3)  (   5->   6) 
 (   6->   5)  (   7->   8)  (   8->   7) 

 ptrans:     0.0000000     0.5000000     0.5000000
 rotmap:
 (   1->   8)  (   2->   7)  (   3->   6)  (   4->   5)  (   5->   4) 
 (   6->   3)  (   7->   2)  (   8->   1) 


 irot  :  26
 --------------------------------------------------------------------
 isymop:   0   0  -1
          -1   0   0
           0  -1   0

 gtrans:     0.7500000     0.7500000    -0.7500000

 ptrans:     0.0000000     0.0000000     0.0000000
 rotmap:
 (   1->   6)  (   2->   3)  (   3->   2)  (   4->   7)  (   5->   4) 
 (   6->   5)  (   7->   8)  (   8->   1) 

 ptrans:     0.5000000     0.5000000     0.0000000
 rotmap:
 (   1->   4)  (   2->   5)  (   3->   8)  (   4->   1)  (   5->   6) 
 (   6->   3)  (   7->   2)  (   8->   7) 

 ptrans:     0.5000000     0.0000000     0.5000000
 rotmap:
 (   1->   2)  (   2->   7)  (   3->   6)  (   4->   3)  (   5->   8) 
 (   6->   1)  (   7->   4)  (   8->   5) 

 ptrans:     0.0000000     0.5000000     0.5000000
 rotmap:
 (   1->   8)  (   2->   1)  (   3->   4)  (   4->   5)  (   5->   2) 
 (   6->   7)  (   7->   6)  (   8->   3) 


 irot  :  27
 --------------------------------------------------------------------
 isymop:   0  -1   0
           0   0  -1
          -1   0   0

 gtrans:     0.7500000     0.7500000    -0.7500000

 ptrans:     0.0000000     0.0000000     0.0000000
 rotmap:
 (   1->   6)  (   2->   1)  (   3->   4)  (   4->   7)  (   5->   8) 
 (   6->   3)  (   7->   2)  (   8->   5) 

 ptrans:     0.5000000     0.5000000     0.0000000
 rotmap:
 (   1->   4)  (   2->   7)  (   3->   6)  (   4->   1)  (   5->   2) 
 (   6->   5)  (   7->   8)  (   8->   3) 

 ptrans:     0.5000000     0.0000000     0.5000000
 rotmap:
 (   1->   2)  (   2->   5)  (   3->   8)  (   4->   3)  (   5->   4) 
 (   6->   7)  (   7->   6)  (   8->   1) 

 ptrans:     0.0000000     0.5000000     0.5000000
 rotmap:
 (   1->   8)  (   2->   3)  (   3->   2)  (   4->   5)  (   5->   6) 
 (   6->   1)  (   7->   4)  (   8->   7) 


 irot  :  28
 --------------------------------------------------------------------
 isymop:   0  -1   0
           1   0   0
           0   0   1

 gtrans:     0.7500000     0.7500000    -0.7500000

 ptrans:     0.0000000     0.0000000     0.0000000
 rotmap:
 (   1->   8)  (   2->   3)  (   3->   4)  (   4->   7)  (   5->   6) 
 (   6->   1)  (   7->   2)  (   8->   5) 

 ptrans:     0.5000000     0.5000000     0.0000000
 rotmap:
 (   1->   2)  (   2->   5)  (   3->   6)  (   4->   1)  (   5->   4) 
 (   6->   7)  (   7->   8)  (   8->   3) 

 ptrans:     0.5000000     0.0000000     0.5000000
 rotmap:
 (   1->   4)  (   2->   7)  (   3->   8)  (   4->   3)  (   5->   2) 
 (   6->   5)  (   7->   6)  (   8->   1) 

 ptrans:     0.0000000     0.5000000     0.5000000
 rotmap:
 (   1->   6)  (   2->   1)  (   3->   2)  (   4->   5)  (   5->   8) 
 (   6->   3)  (   7->   4)  (   8->   7) 


 irot  :  29
 --------------------------------------------------------------------
 isymop:  -1   0   0
           0   0   1
           0   1   0

 gtrans:     0.7500000     0.7500000    -0.7500000

 ptrans:     0.0000000     0.0000000     0.0000000
 rotmap:
 (   1->   8)  (   2->   5)  (   3->   6)  (   4->   7)  (   5->   2) 
 (   6->   3)  (   7->   4)  (   8->   1) 

 ptrans:     0.5000000     0.5000000     0.0000000
 rotmap:
 (   1->   2)  (   2->   3)  (   3->   4)  (   4->   1)  (   5->   8) 
 (   6->   5)  (   7->   6)  (   8->   7) 

 ptrans:     0.5000000     0.0000000     0.5000000
 rotmap:
 (   1->   4)  (   2->   1)  (   3->   2)  (   4->   3)  (   5->   6) 
 (   6->   7)  (   7->   8)  (   8->   5) 

 ptrans:     0.0000000     0.5000000     0.5000000
 rotmap:
 (   1->   6)  (   2->   7)  (   3->   8)  (   4->   5)  (   5->   4) 
 (   6->   1)  (   7->   2)  (   8->   3) 


 irot  :  30
 --------------------------------------------------------------------
 isymop:   0   0  -1
           0   1   0
           1   0   0

 gtrans:     0.7500000     0.7500000    -0.7500000

 ptrans:     0.0000000     0.0000000     0.0000000
 rotmap:
 (   1->   8)  (   2->   1)  (   3->   2)  (   4->   7)  (   5->   4) 
 (   6->   5)  (   7->   6)  (   8->   3) 

 ptrans:     0.5000000     0.5000000     0.0000000
 rotmap:
 (   1->   2)  (   2->   7)  (   3->   8)  (   4->   1)  (   5->   6) 
 (   6->   3)  (   7->   4)  (   8->   5) 

 ptrans:     0.5000000     0.0000000     0.5000000
 rotmap:
 (   1->   4)  (   2->   5)  (   3->   6)  (   4->   3)  (   5->   8) 
 (   6->   1)  (   7->   2)  (   8->   7) 

 ptrans:     0.0000000     0.5000000     0.5000000
 rotmap:
 (   1->   6)  (   2->   3)  (   3->   4)  (   4->   5)  (   5->   2) 
 (   6->   7)  (   7->   8)  (   8->   1) 


 irot  :  31
 --------------------------------------------------------------------
 isymop:   1   0   0
           0   1   0
           0   0  -1

 gtrans:     0.7500000     0.7500000    -0.7500000

 ptrans:     0.0000000     0.0000000     0.0000000
 rotmap:
 (   1->   4)  (   2->   5)  (   3->   2)  (   4->   7)  (   5->   8) 
 (   6->   1)  (   7->   6)  (   8->   3) 

 ptrans:     0.5000000     0.5000000     0.0000000
 rotmap:
 (   1->   6)  (   2->   3)  (   3->   8)  (   4->   1)  (   5->   2) 
 (   6->   7)  (   7->   4)  (   8->   5) 

 ptrans:     0.5000000     0.0000000     0.5000000
 rotmap:
 (   1->   8)  (   2->   1)  (   3->   6)  (   4->   3)  (   5->   4) 
 (   6->   5)  (   7->   2)  (   8->   7) 

 ptrans:     0.0000000     0.5000000     0.5000000
 rotmap:
 (   1->   2)  (   2->   7)  (   3->   4)  (   4->   5)  (   5->   6) 
 (   6->   3)  (   7->   8)  (   8->   1) 


 irot  :  32
 --------------------------------------------------------------------
 isymop:   0   0   1
           1   0   0
           0  -1   0

 gtrans:     0.7500000     0.7500000    -0.7500000

 ptrans:     0.0000000     0.0000000     0.0000000
 rotmap:
 (   1->   4)  (   2->   3)  (   3->   8)  (   4->   7)  (   5->   6) 
 (   6->   5)  (   7->   2)  (   8->   1) 

 ptrans:     0.5000000     0.5000000     0.0000000
 rotmap:
 (   1->   6)  (   2->   5)  (   3->   2)  (   4->   1)  (   5->   4) 
 (   6->   3)  (   7->   8)  (   8->   7) 

 ptrans:     0.5000000     0.0000000     0.5000000
 rotmap:
 (   1->   8)  (   2->   7)  (   3->   4)  (   4->   3)  (   5->   2) 
 (   6->   1)  (   7->   6)  (   8->   5) 

 ptrans:     0.0000000     0.5000000     0.5000000
 rotmap:
 (   1->   2)  (   2->   1)  (   3->   6)  (   4->   5)  (   5->   8) 
 (   6->   7)  (   7->   4)  (   8->   3) 


 irot  :  33
 --------------------------------------------------------------------
 isymop:   0   1   0
           0   0   1
          -1   0   0

 gtrans:     0.7500000     0.7500000    -0.7500000

 ptrans:     0.0000000     0.0000000     0.0000000
 rotmap:
 (   1->   4)  (   2->   1)  (   3->   6)  (   4->   7)  (   5->   2) 
 (   6->   3)  (   7->   8)  (   8->   5) 

 ptrans:     0.5000000     0.5000000     0.0000000
 rotmap:
 (   1->   6)  (   2->   7)  (   3->   4)  (   4->   1)  (   5->   8) 
 (   6->   5)  (   7->   2)  (   8->   3) 

 ptrans:     0.5000000     0.0000000     0.5000000
 rotmap:
 (   1->   8)  (   2->   5)  (   3->   2)  (   4->   3)  (   5->   6) 
 (   6->   7)  (   7->   4)  (   8->   1) 

 ptrans:     0.0000000     0.5000000     0.5000000
 rotmap:
 (   1->   2)  (   2->   3)  (   3->   8)  (   4->   5)  (   5->   4) 
 (   6->   1)  (   7->   6)  (   8->   7) 


 irot  :  34
 --------------------------------------------------------------------
 isymop:   0   1   0
          -1   0   0
           0   0   1

 gtrans:     0.7500000     0.7500000    -0.7500000

 ptrans:     0.0000000     0.0000000     0.0000000
 rotmap:
 (   1->   2)  (   2->   3)  (   3->   6)  (   4->   7)  (   5->   4) 
 (   6->   1)  (   7->   8)  (   8->   5) 

 ptrans:     0.5000000     0.5000000     0.0000000
 rotmap:
 (   1->   8)  (   2->   5)  (   3->   4)  (   4->   1)  (   5->   6) 
 (   6->   7)  (   7->   2)  (   8->   3) 

 ptrans:     0.5000000     0.0000000     0.5000000
 rotmap:
 (   1->   6)  (   2->   7)  (   3->   2)  (   4->   3)  (   5->   8) 
 (   6->   5)  (   7->   4)  (   8->   1) 

 ptrans:     0.0000000     0.5000000     0.5000000
 rotmap:
 (   1->   4)  (   2->   1)  (   3->   8)  (   4->   5)  (   5->   2) 
 (   6->   3)  (   7->   6)  (   8->   7) 


 irot  :  35
 --------------------------------------------------------------------
 isymop:   1   0   0
           0   0  -1
           0   1   0

 gtrans:     0.7500000     0.7500000    -0.7500000

 ptrans:     0.0000000     0.0000000     0.0000000
 rotmap:
 (   1->   2)  (   2->   5)  (   3->   4)  (   4->   7)  (   5->   8) 
 (   6->   3)  (   7->   6)  (   8->   1) 

 ptrans:     0.5000000     0.5000000     0.0000000
 rotmap:
 (   1->   8)  (   2->   3)  (   3->   6)  (   4->   1)  (   5->   2) 
 (   6->   5)  (   7->   4)  (   8->   7) 

 ptrans:     0.5000000     0.0000000     0.5000000
 rotmap:
 (   1->   6)  (   2->   1)  (   3->   8)  (   4->   3)  (   5->   4) 
 (   6->   7)  (   7->   2)  (   8->   5) 

 ptrans:     0.0000000     0.5000000     0.5000000
 rotmap:
 (   1->   4)  (   2->   7)  (   3->   2)  (   4->   5)  (   5->   6) 
 (   6->   1)  (   7->   8)  (   8->   3) 


 irot  :  36
 --------------------------------------------------------------------
 isymop:   0   0   1
           0  -1   0
           1   0   0

 gtrans:     0.7500000     0.7500000    -0.7500000

 ptrans:     0.0000000     0.0000000     0.0000000
 rotmap:
 (   1->   2)  (   2->   1)  (   3->   8)  (   4->   7)  (   5->   6) 
 (   6->   5)  (   7->   4)  (   8->   3) 

 ptrans:     0.5000000     0.5000000     0.0000000
 rotmap:
 (   1->   8)  (   2->   7)  (   3->   2)  (   4->   1)  (   5->   4) 
 (   6->   3)  (   7->   6)  (   8->   5) 

 ptrans:     0.5000000     0.0000000     0.5000000
 rotmap:
 (   1->   6)  (   2->   5)  (   3->   4)  (   4->   3)  (   5->   2) 
 (   6->   1)  (   7->   8)  (   8->   7) 

 ptrans:     0.0000000     0.5000000     0.5000000
 rotmap:
 (   1->   4)  (   2->   3)  (   3->   6)  (   4->   5)  (   5->   8) 
 (   6->   7)  (   7->   2)  (   8->   1) 


 irot  :  37
 --------------------------------------------------------------------
 isymop:   0   0  -1
           1   0   0
           0   1   0

 gtrans:     0.7500000     0.7500000    -0.7500000

 ptrans:     0.0000000     0.0000000     0.0000000
 rotmap:
 (   1->   8)  (   2->   3)  (   3->   4)  (   4->   7)  (   5->   2) 
 (   6->   5)  (   7->   6)  (   8->   1) 

 ptrans:     0.5000000     0.5000000     0.0000000
 rotmap:
 (   1->   2)  (   2->   5)  (   3->   6)  (   4->   1)  (   5->   8) 
 (   6->   3)  (   7->   4)  (   8->   7) 

 ptrans:     0.5000000     0.0000000     0.5000000
 rotmap:
 (   1->   4)  (   2->   7)  (   3->   8)  (   4->   3)  (   5->   6) 
 (   6->   1)  (   7->   2)  (   8->   5) 

 ptrans:     0.0000000     0.5000000     0.5000000
 rotmap:
 (   1->   6)  (   2->   1)  (   3->   2)  (   4->   5)  (   5->   4) 
 (   6->   7)  (   7->   8)  (   8->   3) 


 irot  :  38
 --------------------------------------------------------------------
 isymop:   0  -1   0
           0   0   1
           1   0   0

 gtrans:     0.7500000     0.7500000    -0.7500000

 ptrans:     0.0000000     0.0000000     0.0000000
 rotmap:
 (   1->   8)  (   2->   1)  (   3->   2)  (   4->   7)  (   5->   6) 
 (   6->   3)  (   7->   4)  (   8->   5) 

 ptrans:     0.5000000     0.5000000     0.0000000
 rotmap:
 (   1->   2)  (   2->   7)  (   3->   8)  (   4->   1)  (   5->   4) 
 (   6->   5)  (   7->   6)  (   8->   3) 

 ptrans:     0.5000000     0.0000000     0.5000000
 rotmap:
 (   1->   4)  (   2->   5)  (   3->   6)  (   4->   3)  (   5->   2) 
 (   6->   7)  (   7->   8)  (   8->   1) 

 ptrans:     0.0000000     0.5000000     0.5000000
 rotmap:
 (   1->   6)  (   2->   3)  (   3->   4)  (   4->   5)  (   5->   8) 
 (   6->   1)  (   7->   2)  (   8->   7) 


 irot  :  39
 --------------------------------------------------------------------
 isymop:  -1   0   0
           0   1   0
           0   0   1

 gtrans:     0.7500000     0.7500000    -0.7500000

 ptrans:     0.0000000     0.0000000     0.0000000
 rotmap:
 (   1->   8)  (   2->   5)  (   3->   6)  (   4->   7)  (   5->   4) 
 (   6->   1)  (   7->   2)  (   8->   3) 

 ptrans:     0.5000000     0.5000000     0.0000000
 rotmap:
 (   1->   2)  (   2->   3)  (   3->   4)  (   4->   1)  (   5->   6) 
 (   6->   7)  (   7->   8)  (   8->   5) 

 ptrans:     0.5000000     0.0000000     0.5000000
 rotmap:
 (   1->   4)  (   2->   1)  (   3->   2)  (   4->   3)  (   5->   8) 
 (   6->   5)  (   7->   6)  (   8->   7) 

 ptrans:     0.0000000     0.5000000     0.5000000
 rotmap:
 (   1->   6)  (   2->   7)  (   3->   8)  (   4->   5)  (   5->   2) 
 (   6->   3)  (   7->   4)  (   8->   1) 


 irot  :  40
 --------------------------------------------------------------------
 isymop:   0   0   1
           0   1   0
          -1   0   0

 gtrans:     0.7500000     0.7500000    -0.7500000

 ptrans:     0.0000000     0.0000000     0.0000000
 rotmap:
 (   1->   4)  (   2->   1)  (   3->   6)  (   4->   7)  (   5->   8) 
 (   6->   5)  (   7->   2)  (   8->   3) 

 ptrans:     0.5000000     0.5000000     0.0000000
 rotmap:
 (   1->   6)  (   2->   7)  (   3->   4)  (   4->   1)  (   5->   2) 
 (   6->   3)  (   7->   8)  (   8->   5) 

 ptrans:     0.5000000     0.0000000     0.5000000
 rotmap:
 (   1->   8)  (   2->   5)  (   3->   2)  (   4->   3)  (   5->   4) 
 (   6->   1)  (   7->   6)  (   8->   7) 

 ptrans:     0.0000000     0.5000000     0.5000000
 rotmap:
 (   1->   2)  (   2->   3)  (   3->   8)  (   4->   5)  (   5->   6) 
 (   6->   7)  (   7->   4)  (   8->   1) 


 irot  :  41
 --------------------------------------------------------------------
 isymop:   0   1   0
           1   0   0
           0   0  -1

 gtrans:     0.7500000     0.7500000    -0.7500000

 ptrans:     0.0000000     0.0000000     0.0000000
 rotmap:
 (   1->   4)  (   2->   3)  (   3->   8)  (   4->   7)  (   5->   2) 
 (   6->   1)  (   7->   6)  (   8->   5) 

 ptrans:     0.5000000     0.5000000     0.0000000
 rotmap:
 (   1->   6)  (   2->   5)  (   3->   2)  (   4->   1)  (   5->   8) 
 (   6->   7)  (   7->   4)  (   8->   3) 

 ptrans:     0.5000000     0.0000000     0.5000000
 rotmap:
 (   1->   8)  (   2->   7)  (   3->   4)  (   4->   3)  (   5->   6) 
 (   6->   5)  (   7->   2)  (   8->   1) 

 ptrans:     0.0000000     0.5000000     0.5000000
 rotmap:
 (   1->   2)  (   2->   1)  (   3->   6)  (   4->   5)  (   5->   4) 
 (   6->   3)  (   7->   8)  (   8->   7) 


 irot  :  42
 --------------------------------------------------------------------
 isymop:   1   0   0
           0   0   1
           0  -1   0

 gtrans:     0.7500000     0.7500000    -0.7500000

 ptrans:     0.0000000     0.0000000     0.0000000
 rotmap:
 (   1->   4)  (   2->   5)  (   3->   2)  (   4->   7)  (   5->   6) 
 (   6->   3)  (   7->   8)  (   8->   1) 

 ptrans:     0.5000000     0.5000000     0.0000000
 rotmap:
 (   1->   6)  (   2->   3)  (   3->   8)  (   4->   1)  (   5->   4) 
 (   6->   5)  (   7->   2)  (   8->   7) 

 ptrans:     0.5000000     0.0000000     0.5000000
 rotmap:
 (   1->   8)  (   2->   1)  (   3->   6)  (   4->   3)  (   5->   2) 
 (   6->   7)  (   7->   4)  (   8->   5) 

 ptrans:     0.0000000     0.5000000     0.5000000
 rotmap:
 (   1->   2)  (   2->   7)  (   3->   4)  (   4->   5)  (   5->   8) 
 (   6->   1)  (   7->   6)  (   8->   3) 


 irot  :  43
 --------------------------------------------------------------------
 isymop:   0   1   0
           0   0  -1
           1   0   0

 gtrans:     0.7500000     0.7500000    -0.7500000

 ptrans:     0.0000000     0.0000000     0.0000000
 rotmap:
 (   1->   2)  (   2->   1)  (   3->   8)  (   4->   7)  (   5->   4) 
 (   6->   3)  (   7->   6)  (   8->   5) 

 ptrans:     0.5000000     0.5000000     0.0000000
 rotmap:
 (   1->   8)  (   2->   7)  (   3->   2)  (   4->   1)  (   5->   6) 
 (   6->   5)  (   7->   4)  (   8->   3) 

 ptrans:     0.5000000     0.0000000     0.5000000
 rotmap:
 (   1->   6)  (   2->   5)  (   3->   4)  (   4->   3)  (   5->   8) 
 (   6->   7)  (   7->   2)  (   8->   1) 

 ptrans:     0.0000000     0.5000000     0.5000000
 rotmap:
 (   1->   4)  (   2->   3)  (   3->   6)  (   4->   5)  (   5->   2) 
 (   6->   1)  (   7->   8)  (   8->   7) 


 irot  :  44
 --------------------------------------------------------------------
 isymop:   1   0   0
           0  -1   0
           0   0   1

 gtrans:     0.7500000     0.7500000    -0.7500000

 ptrans:     0.0000000     0.0000000     0.0000000
 rotmap:
 (   1->   2)  (   2->   5)  (   3->   4)  (   4->   7)  (   5->   6) 
 (   6->   1)  (   7->   8)  (   8->   3) 

 ptrans:     0.5000000     0.5000000     0.0000000
 rotmap:
 (   1->   8)  (   2->   3)  (   3->   6)  (   4->   1)  (   5->   4) 
 (   6->   7)  (   7->   2)  (   8->   5) 

 ptrans:     0.5000000     0.0000000     0.5000000
 rotmap:
 (   1->   6)  (   2->   1)  (   3->   8)  (   4->   3)  (   5->   2) 
 (   6->   5)  (   7->   4)  (   8->   7) 

 ptrans:     0.0000000     0.5000000     0.5000000
 rotmap:
 (   1->   4)  (   2->   7)  (   3->   2)  (   4->   5)  (   5->   8) 
 (   6->   3)  (   7->   6)  (   8->   1) 


 irot  :  45
 --------------------------------------------------------------------
 isymop:   0   0   1
          -1   0   0
           0   1   0

 gtrans:     0.7500000     0.7500000    -0.7500000

 ptrans:     0.0000000     0.0000000     0.0000000
 rotmap:
 (   1->   2)  (   2->   3)  (   3->   6)  (   4->   7)  (   5->   8) 
 (   6->   5)  (   7->   4)  (   8->   1) 

 ptrans:     0.5000000     0.5000000     0.0000000
 rotmap:
 (   1->   8)  (   2->   5)  (   3->   4)  (   4->   1)  (   5->   2) 
 (   6->   3)  (   7->   6)  (   8->   7) 

 ptrans:     0.5000000     0.0000000     0.5000000
 rotmap:
 (   1->   6)  (   2->   7)  (   3->   2)  (   4->   3)  (   5->   4) 
 (   6->   1)  (   7->   8)  (   8->   5) 

 ptrans:     0.0000000     0.5000000     0.5000000
 rotmap:
 (   1->   4)  (   2->   1)  (   3->   8)  (   4->   5)  (   5->   6) 
 (   6->   7)  (   7->   2)  (   8->   3) 


 irot  :  46
 --------------------------------------------------------------------
 isymop:  -1   0   0
           0   0  -1
           0  -1   0

 gtrans:     0.7500000     0.7500000    -0.7500000

 ptrans:     0.0000000     0.0000000     0.0000000
 rotmap:
 (   1->   6)  (   2->   5)  (   3->   8)  (   4->   7)  (   5->   4) 
 (   6->   3)  (   7->   2)  (   8->   1) 

 ptrans:     0.5000000     0.5000000     0.0000000
 rotmap:
 (   1->   4)  (   2->   3)  (   3->   2)  (   4->   1)  (   5->   6) 
 (   6->   5)  (   7->   8)  (   8->   7) 

 ptrans:     0.5000000     0.0000000     0.5000000
 rotmap:
 (   1->   2)  (   2->   1)  (   3->   4)  (   4->   3)  (   5->   8) 
 (   6->   7)  (   7->   6)  (   8->   5) 

 ptrans:     0.0000000     0.5000000     0.5000000
 rotmap:
 (   1->   8)  (   2->   7)  (   3->   6)  (   4->   5)  (   5->   2) 
 (   6->   1)  (   7->   4)  (   8->   3) 


 irot  :  47
 --------------------------------------------------------------------
 isymop:   0  -1   0
          -1   0   0
           0   0  -1

 gtrans:     0.7500000     0.7500000    -0.7500000

 ptrans:     0.0000000     0.0000000     0.0000000
 rotmap:
 (   1->   6)  (   2->   3)  (   3->   2)  (   4->   7)  (   5->   8) 
 (   6->   1)  (   7->   4)  (   8->   5) 

 ptrans:     0.5000000     0.5000000     0.0000000
 rotmap:
 (   1->   4)  (   2->   5)  (   3->   8)  (   4->   1)  (   5->   2) 
 (   6->   7)  (   7->   6)  (   8->   3) 

 ptrans:     0.5000000     0.0000000     0.5000000
 rotmap:
 (   1->   2)  (   2->   7)  (   3->   6)  (   4->   3)  (   5->   4) 
 (   6->   5)  (   7->   8)  (   8->   1) 

 ptrans:     0.0000000     0.5000000     0.5000000
 rotmap:
 (   1->   8)  (   2->   1)  (   3->   4)  (   4->   5)  (   5->   6) 
 (   6->   3)  (   7->   2)  (   8->   7) 


 irot  :  48
 --------------------------------------------------------------------
 isymop:   0   0  -1
           0  -1   0
          -1   0   0

 gtrans:     0.7500000     0.7500000    -0.7500000

 ptrans:     0.0000000     0.0000000     0.0000000
 rotmap:
 (   1->   6)  (   2->   1)  (   3->   4)  (   4->   7)  (   5->   2) 
 (   6->   5)  (   7->   8)  (   8->   3) 

 ptrans:     0.5000000     0.5000000     0.0000000
 rotmap:
 (   1->   4)  (   2->   7)  (   3->   6)  (   4->   1)  (   5->   8) 
 (   6->   3)  (   7->   2)  (   8->   5) 

 ptrans:     0.5000000     0.0000000     0.5000000
 rotmap:
 (   1->   2)  (   2->   5)  (   3->   8)  (   4->   3)  (   5->   6) 
 (   6->   1)  (   7->   4)  (   8->   7) 

 ptrans:     0.0000000     0.5000000     0.5000000
 rotmap:
 (   1->   8)  (   2->   3)  (   3->   2)  (   4->   5)  (   5->   4) 
 (   6->   7)  (   7->   6)  (   8->   1) 
 
 
 KPOINTS: ENCUT/KPOINTS Conv                      

Automatic generation of k-mesh.
Space group operators:
 irot       det(A)        alpha          n_x          n_y          n_z        tau_x        tau_y        tau_z
    1     1.000000     0.000001     1.000000     0.000000     0.000000     0.000000     0.000000    -0.000000
    2     1.000000   120.000000    -0.577350    -0.577350    -0.577350     0.000000     0.000000    -0.000000
    3     1.000000   120.000000     0.577350     0.577350     0.577350     0.000000     0.000000    -0.000000
    4    -1.000000    90.000000     0.000000     0.000000    -1.000000     0.000000     0.000000    -0.000000
    5    -1.000000   180.000000     0.000000     0.707107     0.707107     0.000000     0.000000    -0.000000
    6    -1.000000    90.000000     0.000000     1.000000     0.000000     0.000000     0.000000    -0.000000
    7     1.000000   180.000000     0.000000     0.000000     1.000000     0.000000     0.000000    -0.000000
    8     1.000000   120.000000    -0.577350     0.577350     0.577350     0.000000     0.000000    -0.000000
    9     1.000000   120.000000    -0.577350     0.577350    -0.577350     0.000000     0.000000    -0.000000
   10    -1.000000    90.000000     0.000000     0.000000     1.000000     0.000000     0.000000    -0.000000
   11    -1.000000    90.000000    -1.000000     0.000000     0.000000     0.000000     0.000000    -0.000000
   12    -1.000000   180.000000     0.707107     0.000000     0.707107     0.000000     0.000000    -0.000000
   13     1.000000   120.000000     0.577350    -0.577350     0.577350     0.000000     0.000000    -0.000000
   14     1.000000   120.000000    -0.577350    -0.577350     0.577350     0.000000     0.000000    -0.000000
   15     1.000000   180.000000     1.000000     0.000000     0.000000     0.000000     0.000000    -0.000000
   16    -1.000000    90.000000     0.000000    -1.000000     0.000000     0.000000     0.000000    -0.000000
   17    -1.000000   180.000000     0.707107     0.707107     0.000000     0.000000     0.000000    -0.000000
   18    -1.000000    90.000000     1.000000     0.000000     0.000000     0.000000     0.000000    -0.000000
   19     1.000000   120.000000     0.577350    -0.577350    -0.577350     0.000000     0.000000    -0.000000
   20     1.000000   180.000000     0.000000     1.000000     0.000000     0.000000     0.000000    -0.000000
   21     1.000000   120.000000     0.577350     0.577350    -0.577350     0.000000     0.000000    -0.000000
   22    -1.000000   180.000000     0.000000    -0.707107     0.707107     0.000000     0.000000    -0.000000
   23    -1.000000   180.000000     0.707107    -0.707107     0.000000     0.000000     0.000000    -0.000000
   24    -1.000000   180.000000     0.707107     0.000000    -0.707107     0.000000     0.000000    -0.000000
   25    -1.000000     0.000001     1.000000     0.000000     0.000000     0.750000     0.750000    -0.750000
   26    -1.000000   120.000000    -0.577350    -0.577350    -0.577350     0.750000     0.750000    -0.750000
   27    -1.000000   120.000000     0.577350     0.577350     0.577350     0.750000     0.750000    -0.750000
   28     1.000000    90.000000     0.000000     0.000000    -1.000000     0.750000     0.750000    -0.750000
   29     1.000000   180.000000     0.000000     0.707107     0.707107     0.750000     0.750000    -0.750000
   30     1.000000    90.000000     0.000000     1.000000     0.000000     0.750000     0.750000    -0.750000
   31    -1.000000   180.000000     0.000000     0.000000     1.000000     0.750000     0.750000    -0.750000
   32    -1.000000   120.000000    -0.577350     0.577350     0.577350     0.750000     0.750000    -0.750000
   33    -1.000000   120.000000    -0.577350     0.577350    -0.577350     0.750000     0.750000    -0.750000
   34     1.000000    90.000000     0.000000     0.000000     1.000000     0.750000     0.750000    -0.750000
   35     1.000000    90.000000    -1.000000     0.000000     0.000000     0.750000     0.750000    -0.750000
   36     1.000000   180.000000     0.707107     0.000000     0.707107     0.750000     0.750000    -0.750000
   37    -1.000000   120.000000     0.577350    -0.577350     0.577350     0.750000     0.750000    -0.750000
   38    -1.000000   120.000000    -0.577350    -0.577350     0.577350     0.750000     0.750000    -0.750000
   39    -1.000000   180.000000     1.000000     0.000000     0.000000     0.750000     0.750000    -0.750000
   40     1.000000    90.000000     0.000000    -1.000000     0.000000     0.750000     0.750000    -0.750000
   41     1.000000   180.000000     0.707107     0.707107     0.000000     0.750000     0.750000    -0.750000
   42     1.000000    90.000000     1.000000     0.000000     0.000000     0.750000     0.750000    -0.750000
   43    -1.000000   120.000000     0.577350    -0.577350    -0.577350     0.750000     0.750000    -0.750000
   44    -1.000000   180.000000     0.000000     1.000000     0.000000     0.750000     0.750000    -0.750000
   45    -1.000000   120.000000     0.577350     0.577350    -0.577350     0.750000     0.750000    -0.750000
   46     1.000000   180.000000     0.000000    -0.707107     0.707107     0.750000     0.750000    -0.750000
   47     1.000000   180.000000     0.707107    -0.707107     0.000000     0.750000     0.750000    -0.750000
   48     1.000000   180.000000     0.707107     0.000000    -0.707107     0.750000     0.750000    -0.750000
 
 Subroutine IBZKPT returns following result:
 ===========================================
 
 Found     10 irreducible k-points:
 
 Following reciprocal coordinates:
            Coordinates               Weight
  0.083333  0.083333  0.083333      8.000000
  0.250000  0.083333  0.083333     24.000000
  0.416667  0.083333  0.083333     24.000000
  0.250000  0.250000  0.083333     24.000000
  0.416667  0.250000  0.083333     48.000000
  0.416667  0.416667  0.083333     24.000000
  0.250000  0.250000  0.250000      8.000000
  0.416667  0.250000  0.250000     24.000000
  0.416667  0.416667  0.250000     24.000000
  0.416667  0.416667  0.416667      8.000000
 
 Following cartesian coordinates:
            Coordinates               Weight
  0.014460  0.014460  0.014460      8.000000
  0.043381  0.014460  0.014460     24.000000
  0.072302  0.014460  0.014460     24.000000
  0.043381  0.043381  0.014460     24.000000
  0.072302  0.043381  0.014460     48.000000
  0.072302  0.072302  0.014460     24.000000
  0.043381  0.043381  0.043381      8.000000
  0.072302  0.043381  0.043381     24.000000
  0.072302  0.072302  0.043381     24.000000
  0.072302  0.072302  0.072302      8.000000
 


--------------------------------------------------------------------------------------------------------




 Dimension of arrays:
   k-points           NKPTS =     10   k-points in BZ     NKDIM =     10   number of bands    NBANDS=     20
   number of dos      NEDOS =    301   number of ions     NIONS =      8
   non local maximal  LDIM  =      5   non local SUM 2l+1 LMDIM =     13
   total plane-waves  NPLWV =  64000
   max r-space proj   IRMAX =      1   max aug-charges    IRDMAX=  24230
   dimension x,y,z NGX =    40 NGY =   40 NGZ =   40
   dimension x,y,z NGXF=    80 NGYF=   80 NGZF=   80
   support grid    NGXF=    80 NGYF=   80 NGZF=   80
   ions per type =               8
 NGX,Y,Z   is equivalent  to a cutoff of  11.54, 11.54, 11.54 a.u.
 NGXF,Y,Z  is equivalent  to a cutoff of  23.08, 23.08, 23.08 a.u.


 I would recommend the setting:
   dimension x,y,z NGX =    37 NGY =   37 NGZ =   37
 SYSTEM =  unknown system                          
 POSCAR =  Ge8                                     

 Startparameter for this run:
   NWRITE =      2    write-flag & timer
   PREC   = normal    normal or accurate (medium, high low for compatibility)
   ISTART =      0    job   : 0-new  1-cont  2-samecut
   ICHARG =      2    charge: 1-file 2-atom 10-const
   ISPIN  =      1    spin polarized calculation?
   LNONCOLLINEAR =      F non collinear calculations
   LSORBIT =      F    spin-orbit coupling
   INIWAV =      1    electr: 0-lowe 1-rand  2-diag
   LASPH  =      F    aspherical Exc in radial PAW
   METAGGA=      F    non-selfconsistent MetaGGA calc.

 Electronic Relaxation 1
   ENCUT  =  700.0 eV  51.45 Ry    7.17 a.u.  12.43 12.43 12.43*2*pi/ulx,y,z
   ENINI  =  700.0     initial cutoff
   ENAUG  =  320.3 eV  augmentation charge cutoff
   NELM   =     60;   NELMIN=  2; NELMDL= -5     # of ELM steps 
   EDIFF  = 0.1E-05   stopping-criterion for ELM
   LREAL  =      F    real-space projection
   NLSPLINE    = F    spline interpolate recip. space projectors
   LCOMPAT=      F    compatible to vasp.4.4
   GGA_COMPAT  = T    GGA compatible to vasp.4.4-vasp.4.6
   LMAXPAW     = -100 max onsite density
   LMAXMIX     =    2 max onsite mixed and CHGCAR
   VOSKOWN=      0    Vosko Wilk Nusair interpolation
   ROPT   =    0.00000
 Ionic relaxation
   EDIFFG = -.2E-01   stopping-criterion for IOM
   NSW    =    300    number of steps for IOM
   NBLOCK =      1;   KBLOCK =    300    inner block; outer block 
   IBRION =      2    ionic relax: 0-MD 1-quasi-New 2-CG
   NFREE  =      1    steps in history (QN), initial steepest desc. (CG)
   ISIF   =      2    stress and relaxation
   IWAVPR =     11    prediction:  0-non 1-charg 2-wave 3-comb
   ISYM   =      1    0-nonsym 1-usesym 2-fastsym
   LCORR  =      T    Harris-Foulkes like correction to forces

   POTIM  = 0.5000    time-step for ionic-motion
   TEIN   =    0.0    initial temperature
   TEBEG  =    0.0;   TEEND  =   0.0 temperature during run
   SMASS  =  -3.00    Nose mass-parameter (am)
   estimated Nose-frequenzy (Omega)   =  0.10E-29 period in steps =****** mass=  -0.759E-27a.u.
   SCALEE = 1.0000    scale energy and forces
   NPACO  =    256;   APACO  = 16.0  distance and # of slots for P.C.
   PSTRESS=    0.0 pullay stress

  Mass of Ions in am
   POMASS =  69.72
  Ionic Valenz
   ZVAL   =   3.00
  Atomic Wigner-Seitz radii
   RWIGS  =  -1.00
  virtual crystal weights 
   VCA    =   1.00
   NELECT =      24.0000    total number of electrons
   NUPDOWN=      -1.0000    fix difference up-down

 DOS related values:
   EMIN   =  10.00;   EMAX   =-10.00  energy-range for DOS
   EFERMI =   0.00
   ISMEAR =     0;   SIGMA  =   0.10  broadening in eV -4-tet -1-fermi 0-gaus

 Electronic relaxation 2 (details)
   IALGO  =     68    algorithm
   LDIAG  =      T    sub-space diagonalisation (order eigenvalues)
   LSUBROT=      T    optimize rotation matrix (better conditioning)
   TURBO    =      0    0=normal 1=particle mesh
   IRESTART =      0    0=no restart 2=restart with 2 vectors
   NREBOOT  =      0    no. of reboots
   NMIN     =      0    reboot dimension
   EREF     =   0.00    reference energy to select bands
   IMIX   =      4    mixing-type and parameters
     AMIX     =   0.40;   BMIX     =  1.00
     AMIX_MAG =   1.60;   BMIX_MAG =  1.00
     AMIN     =   0.10
     WC   =   100.;   INIMIX=   1;  MIXPRE=   1;  MAXMIX= -45

 Intra band minimization:
   WEIMIN = 0.0010     energy-eigenvalue tresh-hold
   EBREAK =  0.12E-07  absolut break condition
   DEPER  =   0.30     relativ break condition  

   TIME   =   0.40     timestep for ELM

  volume/ion in A,a.u.               =      23.92       161.44
  Fermi-wavevector in a.u.,A,eV,Ry     =   0.819421  1.548481  9.135637  0.671450
  Thomas-Fermi vector in A             =   1.930222
 
 Write flags
   LWAVE  =      F    write WAVECAR
   LCHARG =      F    write CHGCAR
   LVTOT  =      F    write LOCPOT, total local potential
   LVHAR  =      F    write LOCPOT, Hartree potential only
   LELF   =      F    write electronic localiz. function (ELF)
   LORBIT =      0    0 simple, 1 ext, 2 COOP (PROOUT)


 Dipole corrections
   LMONO  =      F    monopole corrections only (constant potential shift)
   LDIPOL =      F    correct potential (dipole corrections)
   IDIPOL =      0    1-x, 2-y, 3-z, 4-all directions 
   EPSILON=  1.0000000 bulk dielectric constant

 Exchange correlation treatment:
   GGA     =    --    GGA type
   LEXCH   =     8    internal setting for exchange type
   VOSKOWN=      0    Vosko Wilk Nusair interpolation
   LHFCALC =     F    Hartree Fock is set to
   LHFONE  =     F    Hartree Fock one center treatment
   AEXX    =    0.0000 exact exchange contribution

 Linear response parameters
   LEPSILON=     F    determine dielectric tensor
   LRPA    =     F    only Hartree local field effects (RPA)
   LNABLA  =     F    use nabla operator in PAW spheres
   LVEL    =     F    velocity operator in full k-point grid
   LINTERFAST=   F  fast interpolation
   KINTER  =     0    interpolate to denser k-point grid
   CSHIFT  =0.1000    complex shift for real part using Kramers Kronig
   OMEGAMAX=  -1.0    maximum frequency
   DEG_THRESHOLD= 0.2000000E-02 threshold for treating states as degnerate
   RTIME   =    0.100 relaxation time in fs

 Orbital magnetization related:
   ORBITALMAG=     F  switch on orbital magnetization
   LCHIMAG   =     F  perturbation theory with respect to B field
   DQ        =  0.001000  dq finite difference perturbation B field



--------------------------------------------------------------------------------------------------------


 conjugate gradient relaxation of ions
   using selective dynamics as specified on POSCAR
 charge density and potential will be updated during run
 non-spin polarized calculation
 RMM-DIIS sequential band-by-band and
  variant of blocked Davidson during initial phase
 perform sub-space diagonalisation
    before iterative eigenvector-optimisation
 modified Broyden-mixing scheme, WC =      100.0
 initial mixing is a Kerker type mixing with AMIX =  0.4000 and BMIX =      1.0000
 Hartree-type preconditioning will be used
 using additional bands            8
 reciprocal scheme for non local part
 use partial core corrections
 calculate Harris-corrections to forces 
   (improved forces if not selfconsistent)
 use gradient corrections 
 use of overlap-Matrix (Vanderbilt PP)
 Gauss-broadening in eV      SIGMA  =   0.10


--------------------------------------------------------------------------------------------------------


  energy-cutoff  :      700.00
  volume of cell :      191.39
      direct lattice vectors                 reciprocal lattice vectors
     5.762863000  0.000000000  0.000000000     0.173524861  0.000000000  0.000000000
     0.000000000  5.762863000  0.000000000     0.000000000  0.173524861  0.000000000
     0.000000000  0.000000000  5.762863000     0.000000000  0.000000000  0.173524861

  length of vectors
     5.762863000  5.762863000  5.762863000     0.173524861  0.173524861  0.173524861


 
 k-points in units of 2pi/SCALE and weight: ENCUT/KPOINTS Conv                      
   0.01446041  0.01446041  0.01446041       0.037
   0.04338122  0.01446041  0.01446041       0.111
   0.07230203  0.01446041  0.01446041       0.111
   0.04338122  0.04338122  0.01446041       0.111
   0.07230203  0.04338122  0.01446041       0.222
   0.07230203  0.07230203  0.01446041       0.111
   0.04338122  0.04338122  0.04338122       0.037
   0.07230203  0.04338122  0.04338122       0.111
   0.07230203  0.07230203  0.04338122       0.111
   0.07230203  0.07230203  0.07230203       0.037
 
 k-points in reciprocal lattice and weights: ENCUT/KPOINTS Conv                      
   0.08333333  0.08333333  0.08333333       0.037
   0.25000000  0.08333333  0.08333333       0.111
   0.41666667  0.08333333  0.08333333       0.111
   0.25000000  0.25000000  0.08333333       0.111
   0.41666667  0.25000000  0.08333333       0.222
   0.41666667  0.41666667  0.08333333       0.111
   0.25000000  0.25000000  0.25000000       0.037
   0.41666667  0.25000000  0.25000000       0.111
   0.41666667  0.41666667  0.25000000       0.111
   0.41666667  0.41666667  0.41666667       0.037
 
 position of ions in fractional coordinates (direct lattice) 
   0.75000000  0.75000000  0.75000000
   0.50000000  0.00000000  0.00000000
   0.75000000  0.25000000  0.25000000
   0.50000000  0.50000000  0.50000000
   0.25000000  0.75000000  0.25000000
   0.00000000  0.00000000  0.50000000
   0.25000000  0.25000000  0.75000000
   0.00000000  0.50000000  0.00000000
 
 position of ions in cartesian coordinates  (Angst):
   4.32214725  4.32214725  4.32214725
   2.88143150  0.00000000  0.00000000
   4.32214725  1.44071575  1.44071575
   2.88143150  2.88143150  2.88143150
   1.44071575  4.32214725  1.44071575
   0.00000000  0.00000000  2.88143150
   1.44071575  1.44071575  4.32214725
   0.00000000  2.88143150  0.00000000
 


--------------------------------------------------------------------------------------------------------


 k-point  1 :   0.0833 0.0833 0.0833  plane waves:    8094
 k-point  2 :   0.2500 0.0833 0.0833  plane waves:    8043
 k-point  3 :   0.4167 0.0833 0.0833  plane waves:    8047
 k-point  4 :   0.2500 0.2500 0.0833  plane waves:    8062
 k-point  5 :   0.4167 0.2500 0.0833  plane waves:    8045
 k-point  6 :   0.4167 0.4167 0.0833  plane waves:    8043
 k-point  7 :   0.2500 0.2500 0.2500  plane waves:    8024
 k-point  8 :   0.4167 0.2500 0.2500  plane waves:    8041
 k-point  9 :   0.4167 0.4167 0.2500  plane waves:    8037
 k-point 10 :   0.4167 0.4167 0.4167  plane waves:    8039

 maximum and minimum number of plane-waves per node :      8094     8024

 maximum number of plane-waves:      8094
 maximum index in each direction: 
   IXMAX=   12   IYMAX=   12   IZMAX=   12
   IXMIN=  -12   IYMIN=  -12   IZMIN=  -12

 WARNING: aliasing errors must be expected set NGX to  50 to avoid them
 WARNING: aliasing errors must be expected set NGY to  50 to avoid them
 WARNING: aliasing errors must be expected set NGZ to  50 to avoid them
 aliasing errors are usually negligible using standard VASP settings
 and one can safely disregard these warnings

 serial   3D FFT for wavefunctions
 parallel 3D FFT for charge:
    minimum data exchange during FFTs selected (reduces bandwidth)


 total amount of memory used by VASP on root node    45821. kBytes
========================================================================

   base      :      30000. kBytes
   nonl-proj :       9460. kBytes
   fftplans  :       1148. kBytes
   grid      :       3834. kBytes
   one-center:         64. kBytes
   wavefun   :       1315. kBytes
 
 Broyden mixing: mesh for mixing (old mesh)
   NGX = 25   NGY = 25   NGZ = 25
  (NGX  = 80   NGY  = 80   NGZ  = 80)
  gives a total of  15625 points

 initial charge density was supplied:
 charge density of overlapping atoms calculated
 number of electron      24.0000000 magnetization 
 keeping initial charge density in first step


--------------------------------------------------------------------------------------------------------


 Maximum index for augmentation-charges          989 (set IRDMAX)


--------------------------------------------------------------------------------------------------------


 First call to EWALD:  gamma=   0.308
 Maximum number of real-space cells 3x 3x 3
 Maximum number of reciprocal cells 3x 3x 3

 FEWALD executed in parallel
    FEWALD:  cpu time    0.00: real time    0.00


----------------------------------------- Iteration    1(   1)  ---------------------------------------


    POTLOK:  cpu time    0.02: real time    0.02
    SETDIJ:  cpu time    0.01: real time    0.01
     EDDAV:  cpu time    0.24: real time    0.24
       DOS:  cpu time    0.00: real time    0.00
    --------------------------------------------
      LOOP:  cpu time    0.28: real time    0.30

 eigenvalue-minimisations  :   400
 total energy-change (2. order) : 0.7320570E+02  (-0.1020228E+04)
 number of electron      24.0000000 magnetization 
 augmentation part       24.0000000 magnetization 

 Free energy of the ion-electron system (eV)
  ---------------------------------------------------
  alpha Z        PSCENC =        59.64982895
  Ewald energy   TEWEN  =      -484.56382983
  -1/2 Hartree   DENC   =       -22.55400904
  -exchange  EXHF       =         0.00000000
  -V(xc)+E(xc)   XCENC  =      -155.28695466
  PAW double counting   =       330.10196642     -140.54714835
  entropy T*S    EENTRO =        -0.00520244
  eigenvalues    EBANDS =        15.46081221
  atomic energy  EATOM  =       470.95023928
  ---------------------------------------------------
  free energy    TOTEN  =        73.20570254 eV

  energy without entropy =       73.21090498  energy(sigma->0) =       73.20830376


--------------------------------------------------------------------------------------------------------




----------------------------------------- Iteration    1(   2)  ---------------------------------------


     EDDAV:  cpu time    0.34: real time    0.34
       DOS:  cpu time    0.00: real time    0.00
    --------------------------------------------
      LOOP:  cpu time    0.34: real time    0.34

 eigenvalue-minimisations  :   620
 total energy-change (2. order) :-0.9230757E+02  (-0.9189947E+02)
 number of electron      24.0000000 magnetization 
 augmentation part       24.0000000 magnetization 

 Free energy of the ion-electron system (eV)
  ---------------------------------------------------
  alpha Z        PSCENC =        59.64982895
  Ewald energy   TEWEN  =      -484.56382983
  -1/2 Hartree   DENC   =       -22.55400904
  -exchange  EXHF       =         0.00000000
  -V(xc)+E(xc)   XCENC  =      -155.28695466
  PAW double counting   =       330.10196642     -140.54714835
  entropy T*S    EENTRO =        -0.02602662
  eigenvalues    EBANDS =       -76.82592954
  atomic energy  EATOM  =       470.95023928
  ---------------------------------------------------
  free energy    TOTEN  =       -19.10186339 eV

  energy without entropy =      -19.07583677  energy(sigma->0) =      -19.08885008


--------------------------------------------------------------------------------------------------------




----------------------------------------- Iteration    1(   3)  ---------------------------------------


     EDDAV:  cpu time    0.27: real time    0.27
       DOS:  cpu time    0.00: real time    0.00
    --------------------------------------------
      LOOP:  cpu time    0.27: real time    0.28

 eigenvalue-minimisations  :   480
 total energy-change (2. order) :-0.1908757E+01  (-0.1906096E+01)
 number of electron      24.0000000 magnetization 
 augmentation part       24.0000000 magnetization 

 Free energy of the ion-electron system (eV)
  ---------------------------------------------------
  alpha Z        PSCENC =        59.64982895
  Ewald energy   TEWEN  =      -484.56382983
  -1/2 Hartree   DENC   =       -22.55400904
  -exchange  EXHF       =         0.00000000
  -V(xc)+E(xc)   XCENC  =      -155.28695466
  PAW double counting   =       330.10196642     -140.54714835
  entropy T*S    EENTRO =        -0.02783807
  eigenvalues    EBANDS =       -78.73287517
  atomic energy  EATOM  =       470.95023928
  ---------------------------------------------------
  free energy    TOTEN  =       -21.01062047 eV

  energy without entropy =      -20.98278241  energy(sigma->0) =      -20.99670144


--------------------------------------------------------------------------------------------------------




----------------------------------------- Iteration    1(   4)  ---------------------------------------


     EDDAV:  cpu time    0.38: real time    0.38
       DOS:  cpu time    0.00: real time    0.00
    --------------------------------------------
      LOOP:  cpu time    0.39: real time    0.39

 eigenvalue-minimisations  :   700
 total energy-change (2. order) :-0.7277744E-02  (-0.7277243E-02)
 number of electron      24.0000000 magnetization 
 augmentation part       24.0000000 magnetization 

 Free energy of the ion-electron system (eV)
  ---------------------------------------------------
  alpha Z        PSCENC =        59.64982895
  Ewald energy   TEWEN  =      -484.56382983
  -1/2 Hartree   DENC   =       -22.55400904
  -exchange  EXHF       =         0.00000000
  -V(xc)+E(xc)   XCENC  =      -155.28695466
  PAW double counting   =       330.10196642     -140.54714835
  entropy T*S    EENTRO =        -0.02778141
  eigenvalues    EBANDS =       -78.74020957
  atomic energy  EATOM  =       470.95023928
  ---------------------------------------------------
  free energy    TOTEN  =       -21.01789822 eV

  energy without entropy =      -20.99011681  energy(sigma->0) =      -21.00400751


--------------------------------------------------------------------------------------------------------




----------------------------------------- Iteration    1(   5)  ---------------------------------------


     EDDAV:  cpu time    0.28: real time    0.28
       DOS:  cpu time    0.00: real time    0.00
    CHARGE:  cpu time    0.12: real time    0.12
    MIXING:  cpu time    0.01: real time    0.01
    --------------------------------------------
      LOOP:  cpu time    0.41: real time    0.42

 eigenvalue-minimisations  :   500
 total energy-change (2. order) :-0.5699221E-06  (-0.5698542E-06)
 number of electron      24.0000005 magnetization 
 augmentation part       -4.5041033 magnetization 

 Broyden mixing:
  rms(total) = 0.27814E+00    rms(broyden)= 0.27814E+00
  rms(prec ) = 0.43619E+00
  weight for this iteration     100.00

 Free energy of the ion-electron system (eV)
  ---------------------------------------------------
  alpha Z        PSCENC =        59.64982895
  Ewald energy   TEWEN  =      -484.56382983
  -1/2 Hartree   DENC   =       -22.55400904
  -exchange  EXHF       =         0.00000000
  -V(xc)+E(xc)   XCENC  =      -155.28695466
  PAW double counting   =       330.10196642     -140.54714835
  entropy T*S    EENTRO =        -0.02778141
  eigenvalues    EBANDS =       -78.74021015
  atomic energy  EATOM  =       470.95023928
  ---------------------------------------------------
  free energy    TOTEN  =       -21.01789879 eV

  energy without entropy =      -20.99011738  energy(sigma->0) =      -21.00400808


--------------------------------------------------------------------------------------------------------




----------------------------------------- Iteration    1(   6)  ---------------------------------------


    POTLOK:  cpu time    0.02: real time    0.02
    SETDIJ:  cpu time    0.01: real time    0.01
    EDDIAG:  cpu time    0.06: real time    0.08
  RMM-DIIS:  cpu time    0.19: real time    0.19
    ORTHCH:  cpu time    0.00: real time    0.00
       DOS:  cpu time    0.00: real time    0.00
    CHARGE:  cpu time    0.11: real time    0.11
    MIXING:  cpu time    0.01: real time    0.01
    --------------------------------------------
      LOOP:  cpu time    0.40: real time    0.43

 eigenvalue-minimisations  :   400
 total energy-change (2. order) : 0.8267980E-01  (-0.1348934E-02)
 number of electron      24.0000005 magnetization 
 augmentation part       -4.5001913 magnetization 

 Broyden mixing:
  rms(total) = 0.17249E+00    rms(broyden)= 0.17249E+00
  rms(prec ) = 0.27306E+00
  weight for this iteration     100.00

 eigenvalues of (default mixing * dielectric matrix)
  average eigenvalue GAMMA=   2.6177
  2.6177

 Free energy of the ion-electron system (eV)
  ---------------------------------------------------
  alpha Z        PSCENC =        59.64982895
  Ewald energy   TEWEN  =      -484.56382983
  -1/2 Hartree   DENC   =       -23.00608482
  -exchange  EXHF       =         0.00000000
  -V(xc)+E(xc)   XCENC  =      -154.73492297
[...]
  rms(prec ) = 0.20578E-03
  weight for this iteration     100.00

 eigenvalues of (default mixing * dielectric matrix)
  average eigenvalue GAMMA=   2.2545
  3.4134  0.9927  2.6685  2.4574  1.7402

 Free energy of the ion-electron system (eV)
  ---------------------------------------------------
  alpha Z        PSCENC =        59.64982895
  Ewald energy   TEWEN  =      -484.56382983
  -1/2 Hartree   DENC   =       -24.23149797
  -exchange  EXHF       =         0.00000000
  -V(xc)+E(xc)   XCENC  =      -153.72327682
  PAW double counting   =       420.24453491     -232.10344560
  entropy T*S    EENTRO =        -0.02792196
  eigenvalues    EBANDS =       -77.08755992
  atomic energy  EATOM  =       470.95023928
  ---------------------------------------------------
  free energy    TOTEN  =       -20.89292896 eV

  energy without entropy =      -20.86500700  energy(sigma->0) =      -20.87896798


--------------------------------------------------------------------------------------------------------




----------------------------------------- Iteration    1(  11)  ---------------------------------------


    POTLOK:  cpu time    0.02: real time    0.02
    SETDIJ:  cpu time    0.01: real time    0.01
    EDDIAG:  cpu time    0.04: real time    0.04
  RMM-DIIS:  cpu time    0.18: real time    0.18
    ORTHCH:  cpu time    0.00: real time    0.00
       DOS:  cpu time    0.00: real time    0.00
    --------------------------------------------
      LOOP:  cpu time    0.24: real time    0.25

 eigenvalue-minimisations  :   243
 total energy-change (2. order) :-0.5003684E-06  (-0.5276435E-07)
 number of electron      24.0000005 magnetization 
 augmentation part       -4.4966586 magnetization 

 Free energy of the ion-electron system (eV)
  ---------------------------------------------------
  alpha Z        PSCENC =        59.64982895
  Ewald energy   TEWEN  =      -484.56382983
  -1/2 Hartree   DENC   =       -24.23342087
  -exchange  EXHF       =         0.00000000
  -V(xc)+E(xc)   XCENC  =      -153.72284082
  PAW double counting   =       420.23926597     -232.09819436
  entropy T*S    EENTRO =        -0.02792313
  eigenvalues    EBANDS =       -77.08605464
  atomic energy  EATOM  =       470.95023928
  ---------------------------------------------------
  free energy    TOTEN  =       -20.89292946 eV

  energy without entropy =      -20.86500633  energy(sigma->0) =      -20.87896790


--------------------------------------------------------------------------------------------------------




 average (electrostatic) potential at core
  the test charge radii are     1.2767
  (the norm of the test charge is              1.0000)
       1 -16.4730       2 -16.4730       3 -16.4730       4 -16.4730       5 -16.4730
       6 -16.4730       7 -16.4730       8 -16.4730
 
 
 
 E-fermi :   0.7182     XC(G=0):  -8.8093     alpha+bet : -6.9444


 k-point   1 :       0.0833    0.0833    0.0833
  band No.  band energies     occupation 
      1      -8.7693      2.00000
      2      -5.4287      2.00000
      3      -5.4287      2.00000
      4      -5.4287      2.00000
      5      -4.1828      2.00000
      6      -4.1828      2.00000
      7      -4.1828      2.00000
      8      -0.1159      2.00000
      9      -0.1159      2.00000
     10      -0.1159      2.00000
     11       0.3126      2.00000
     12       0.3126      2.00000
     13       0.3126      2.00000
     14       2.4303      0.00000
     15       3.4646      0.00000
     16       3.4646      0.00000
     17       3.6590      0.00000
     18       3.6590      0.00000
     19       3.6590      0.00000
     20       4.2511      0.00000

 k-point   2 :       0.2500    0.0833    0.0833
  band No.  band energies     occupation 
      1      -8.5391      2.00000
      2      -6.5104      2.00000
      3      -5.3368      2.00000
      4      -5.3368      2.00000
      5      -4.1755      2.00000
      6      -4.1755      2.00000
      7      -2.8331      2.00000
      8      -0.7182      2.00000
      9      -0.7182      2.00000
     10       0.1096      2.00000
     11       0.1096      2.00000
     12       0.1830      2.00000
     13       0.5613      1.97344
     14       1.1972      0.00000
     15       2.6277      0.00000
     16       2.7879      0.00000
     17       3.7718      0.00000
     18       4.4216      0.00000
     19       4.4216      0.00000
     20       4.7271      0.00000

 k-point   3 :       0.4167    0.0833    0.0833
  band No.  band energies     occupation 
      1      -8.0811      2.00000
      2      -7.4012      2.00000
      3      -5.2297      2.00000
      4      -5.2297      2.00000
      5      -4.1844      2.00000
      6      -4.1844      2.00000
      7      -1.4467      2.00000
      8      -1.0606      2.00000
      9      -1.0606      2.00000
     10      -0.2356      2.00000
     11      -0.2356      2.00000
     12      -0.0970      2.00000
     13       0.7876      0.32587
     14       1.0499      0.00000
     15       1.6903      0.00000
     16       1.7565      0.00000
     17       4.0937      0.00000
     18       4.6320      0.00000
     19       5.5550      0.00000
     20       5.9867      0.00000

 k-point   4 :       0.2500    0.2500    0.0833
  band No.  band energies     occupation 
      1      -8.3124      2.00000
      2      -6.3440      2.00000
      3      -6.3440      2.00000
      4      -5.4356      2.00000
      5      -4.0916      2.00000
      6      -3.0600      2.00000
      7      -3.0600      2.00000
      8      -1.1937      2.00000
      9      -0.3794      2.00000
     10      -0.3794      2.00000
     11       0.1167      2.00000
     12       0.4914      1.99866
     13       0.4914      1.99866
     14       0.7381      0.77859
     15       1.8697      0.00000
     16       3.1774      0.00000
     17       4.0983      0.00000
     18       4.6408      0.00000
     19       4.6408      0.00000
     20       5.2814      0.00000

 k-point   5 :       0.4167    0.2500    0.0833
  band No.  band energies     occupation 
      1      -7.8631      2.00000
      2      -7.2005      2.00000
      3      -6.0447      2.00000
      4      -5.6965      2.00000
      5      -3.8445      2.00000
      6      -3.4522      2.00000
      7      -1.9953      2.00000
      8      -1.2237      2.00000
      9      -0.9601      2.00000
     10      -0.8939      2.00000
     11       0.2146      2.00000
     12       0.4910      1.99868
     13       0.7171      1.01187
     14       0.9805      0.00021
     15       1.2877      0.00000
     16       2.3652      0.00000
     17       5.0265      0.00000
     18       5.0618      0.00000
     19       5.5659      0.00000
     20       6.2030      0.00000

 k-point   6 :       0.4167    0.4167    0.0833
  band No.  band energies     occupation 
      1      -7.4347      2.00000
      2      -6.8149      2.00000
      3      -6.8149      2.00000
      4      -6.2845      2.00000
      5      -3.3387      2.00000
      6      -2.6987      2.00000
      7      -2.6987      2.00000
      8      -1.8743      2.00000
      9      -0.9985      2.00000
     10      -0.4747      2.00000
     11      -0.4747      2.00000
     12       0.1740      2.00000
     13       1.5152      0.00000
     14       1.5818      0.00000
     15       1.5818      0.00000
     16       2.4487      0.00000
     17       4.8407      0.00000
     18       5.4957      0.00000
     19       5.8284      0.00000
     20       5.8285      0.00000

 k-point   7 :       0.2500    0.2500    0.2500
  band No.  band energies     occupation 
      1      -8.0911      2.00000
      2      -6.2346      2.00000
      3      -6.2346      2.00000
      4      -6.2346      2.00000
      5      -3.4208      2.00000
      6      -3.4208      2.00000
      7      -3.4208      2.00000
      8      -0.9074      2.00000
      9      -0.4949      2.00000
     10      -0.4949      2.00000
     11      -0.4949      2.00000
     12       0.9613      0.00059
     13       0.9613      0.00059
     14       0.9613      0.00059
     15       2.6587      0.00000
     16       2.6587      0.00000
     17       4.3799      0.00000
     18       4.3799      0.00000
     19       4.3799      0.00000
     20       4.4512      0.00000

 k-point   8 :       0.4167    0.2500    0.2500
  band No.  band energies     occupation 
      1      -7.6551      2.00000
      2      -7.0220      2.00000
      3      -6.1046      2.00000
      4      -6.1046      2.00000
      5      -3.7710      2.00000
      6      -3.7710      2.00000
      7      -2.7011      2.00000
      8      -1.8769      2.00000
      9      -0.4354      2.00000
     10      -0.4354      2.00000
     11       0.6612      1.57954
     12       1.0290      0.00001
     13       1.0290      0.00001
     14       1.3918      0.00000
     15       1.9437      0.00000
     16       1.9889      0.00000
     17       4.8785      0.00000
     18       4.9778      0.00000
     19       5.2565      0.00000
     20       5.2565      0.00000

 k-point   9 :       0.4167    0.4167    0.2500
  band No.  band energies     occupation 
      1      -7.2538      2.00000
      2      -6.7010      2.00000
      3      -6.7010      2.00000
      4      -6.3382      2.00000
      5      -3.8043      2.00000
      6      -3.3963      2.00000
      7      -3.3963      2.00000
      8      -2.7429      2.00000
      9       0.0649      2.00000
     10       0.5202      1.99489
     11       0.5202      1.99489
     12       1.3165      0.00000
     13       1.6585      0.00000
     14       1.6955      0.00000
     15       1.6955      0.00000
     16       2.3638      0.00000
     17       4.7864      0.00000
     18       4.9847      0.00000
     19       5.3534      0.00000
     20       5.3535      0.00000

 k-point  10 :       0.4167    0.4167    0.4167
  band No.  band energies     occupation 
      1      -6.9289      2.00000
      2      -6.5651      2.00000
      3      -6.5651      2.00000
      4      -6.5651      2.00000
      5      -3.9066      2.00000
      6      -3.9066      2.00000
      7      -3.9066      2.00000
      8      -3.4999      2.00000
      9       1.3767      0.00000
     10       1.3767      0.00000
     11       1.3767      0.00000
     12       1.9046      0.00000
     13       1.9046      0.00000
     14       1.9046      0.00000
     15       2.1710      0.00000
     16       2.1710      0.00000
     17       4.0429      0.00000
     18       4.6701      0.00000
     19       4.6701      0.00000
     20       4.6701      0.00000


--------------------------------------------------------------------------------------------------------


 soft charge-density along one line, spin component           1
         0         1         2         3         4         5         6         7         8         9
 total charge-density along one line
 
 pseudopotential strength for first ion, spin component:           1
  6.211   0.144  -0.000   0.000  -0.000  -0.000   0.000  -0.000
  0.144  -0.015  -0.000   0.000  -0.000  -0.000   0.000  -0.000
 -0.000  -0.000   1.351   0.000  -0.000  -0.009   0.000  -0.000
  0.000   0.000   0.000   1.351  -0.000   0.000  -0.009  -0.000
 -0.000  -0.000  -0.000  -0.000   1.351  -0.000  -0.000  -0.009
 -0.000  -0.000  -0.009   0.000  -0.000   0.011   0.000  -0.000
  0.000   0.000   0.000  -0.009  -0.000   0.000   0.011  -0.000
 -0.000  -0.000  -0.000  -0.000  -0.009  -0.000  -0.000   0.011
 -0.000  -0.000  -0.000  -0.006  -0.000  -0.000  -0.000  -0.000
  0.000   0.000   0.000  -0.000  -0.006   0.000  -0.000  -0.000
 -0.000  -0.000   0.000   0.000   0.000   0.000   0.000   0.000
 -0.000  -0.000  -0.006  -0.000   0.000  -0.000  -0.000   0.000
  0.000   0.000   0.000  -0.000  -0.000   0.000  -0.000  -0.000
 total augmentation occupancy for first ion, spin component:           1
  1.705  -0.373  -0.000   0.000  -0.000   0.000   0.000   0.000   0.000  -0.000   0.000  -0.000   0.000
 -0.373   0.260   0.000   0.000   0.000  -0.000   0.000   0.000   0.000   0.000   0.000  -0.000   0.000
  0.000  -0.000   0.863   0.000   0.000  -0.308   0.000  -0.000  -0.000   0.000  -0.000  -0.091   0.000
 -0.000   0.000  -0.000   0.863  -0.000  -0.000  -0.308  -0.000  -0.091  -0.000  -0.000   0.000   0.000
  0.000   0.000   0.000   0.000   0.863  -0.000   0.000  -0.308  -0.000  -0.091  -0.000   0.000  -0.000
 -0.000  -0.000  -0.308   0.000  -0.000   0.131  -0.000  -0.000   0.000   0.000  -0.000   0.040  -0.000
  0.000  -0.000  -0.000  -0.308   0.000  -0.000   0.131   0.000   0.040   0.000   0.000   0.000   0.000
 -0.000  -0.000   0.000  -0.000  -0.308   0.000  -0.000   0.131   0.000   0.040  -0.000   0.000   0.000
 -0.000  -0.000  -0.000  -0.091   0.000  -0.000   0.040  -0.000   0.023   0.000  -0.000   0.000   0.000
 -0.000  -0.000  -0.000   0.000  -0.091  -0.000   0.000   0.040   0.000   0.023  -0.000  -0.000  -0.000
 -0.000   0.000  -0.000   0.000   0.000  -0.000  -0.000  -0.000   0.000  -0.000   0.009  -0.000   0.000
 -0.000   0.000  -0.091  -0.000  -0.000   0.040   0.000  -0.000  -0.000  -0.000  -0.000   0.023   0.000
  0.000  -0.000  -0.000   0.000   0.000   0.000   0.000  -0.000  -0.000  -0.000  -0.000   0.000   0.009


------------------------ aborting loop because EDIFF is reached ----------------------------------------


    CHARGE:  cpu time    0.11: real time    0.11
    FORLOC:  cpu time    0.00: real time    0.00
    FORNL :  cpu time    0.11: real time    0.12
    STRESS:  cpu time    0.53: real time    0.53
    FORCOR:  cpu time    0.02: real time    0.02
    FORHAR:  cpu time    0.00: real time    0.01
    MIXING:  cpu time    0.00: real time    0.00

  FORCE on cell =-STRESS in cart. coord.  units (eV):
  Direction    XX          YY          ZZ          XY          YZ          ZX
  --------------------------------------------------------------------------------------
  Alpha Z    59.64983    59.64983    59.64983
  Ewald    -161.52155  -161.52155  -161.52155    -0.00000     0.00000    -0.00000
  Hartree     8.07745     8.07745     8.07745    -0.00000    -0.00000    -0.00000
  E(xc)     -85.62785   -85.62785   -85.62785    -0.00000    -0.00000    -0.00000
  Local     -26.49470   -26.49470   -26.49470    -0.00000     0.00000    -0.00000
  n-local    37.18215    37.04548    36.72567     0.72236     0.92334     0.79293
  augment    29.85790    29.85790    29.85790     0.00000     0.00000     0.00000
  Kinetic   134.83871   137.04723   155.26389     3.26886     7.83861     4.21427
  Fock        0.00000     0.00000     0.00000     0.00000     0.00000     0.00000
  -------------------------------------------------------------------------------------
  Total       3.30879     3.30879     3.30879     0.00000     0.00000     0.00000
  in kB      27.69905    27.69905    27.69905     0.00000     0.00000     0.00000
  external pressure =       27.70 kB  Pullay stress =        0.00 kB


 VOLUME and BASIS-vectors are now :
 -----------------------------------------------------------------------------
  energy-cutoff  :      700.00
  volume of cell :      191.39
      direct lattice vectors                 reciprocal lattice vectors
     5.762863000  0.000000000  0.000000000     0.173524861  0.000000000  0.000000000
     0.000000000  5.762863000  0.000000000     0.000000000  0.173524861  0.000000000
     0.000000000  0.000000000  5.762863000     0.000000000  0.000000000  0.173524861

  length of vectors
     5.762863000  5.762863000  5.762863000     0.173524861  0.173524861  0.173524861


 FORCES acting on ions
    electron-ion (+dipol)            ewald-force                    non-local-force                 convergence-correction
 -----------------------------------------------------------------------------------------------
   0.801E-14 0.517E-13 0.168E-12   -.355E-14 0.000E+00 -.178E-14   -.163E-16 -.325E-17 -.217E-17   -.102E-14 -.648E-15 0.242E-14
   0.863E-14 -.163E-13 -.996E-13   0.388E-14 -.205E-14 -.355E-14   0.607E-17 0.104E-16 -.499E-17   -.850E-15 -.155E-16 -.833E-15
   0.925E-14 0.119E-12 0.981E-13   -.355E-14 0.000E+00 -.178E-14   -.477E-17 0.108E-17 -.173E-17   -.117E-14 -.168E-14 -.910E-15
   -.105E-13 0.114E-12 0.174E-13   0.362E-14 -.178E-14 -.369E-14   0.195E-17 0.130E-17 0.585E-17   -.101E-14 0.920E-15 -.144E-15
   0.740E-14 0.401E-13 -.754E-13   -.178E-14 0.178E-14 0.355E-14   -.121E-16 -.369E-17 0.173E-17   -.402E-15 -.646E-15 -.743E-15
   -.247E-14 -.122E-15 0.827E-14   0.357E-14 0.219E-15 0.164E-14   0.158E-16 -.217E-17 0.455E-17   0.965E-15 -.187E-15 -.151E-15
   0.740E-14 -.314E-13 0.608E-14   -.355E-14 0.178E-14 0.355E-14   0.325E-17 -.195E-17 -.564E-17   -.371E-15 -.159E-14 0.237E-14
   -.432E-14 0.606E-14 0.252E-14   0.177E-14 0.866E-17 0.175E-14   0.130E-16 0.000E+00 0.325E-17   0.900E-15 0.922E-15 -.939E-15
 -----------------------------------------------------------------------------------------------
   0.234E-13 0.283E-12 0.126E-12   0.404E-15 -.435E-16 -.286E-15   0.694E-17 0.173E-17 0.867E-18   -.295E-14 -.292E-14 0.107E-14
 
 
 POSITION                                       TOTAL-FORCE (eV/Angst)
 -----------------------------------------------------------------------------------
      4.32215      4.32215      4.32215         0.000000      0.000000     -0.000000
      2.88143      0.00000      0.00000        -0.000000     -0.000000     -0.000000
      4.32215      1.44072      1.44072         0.000000     -0.000000     -0.000000
      2.88143      2.88143      2.88143        -0.000000     -0.000000     -0.000000
      1.44072      4.32215      1.44072         0.000000      0.000000      0.000000
      0.00000      0.00000      2.88143        -0.000000     -0.000000     -0.000000
      1.44072      1.44072      4.32215         0.000000      0.000000     -0.000000
      0.00000      2.88143      0.00000        -0.000000      0.000000      0.000000
 -----------------------------------------------------------------------------------
    total drift:                                0.000000      0.000000      0.000000


--------------------------------------------------------------------------------------------------------



  FREE ENERGIE OF THE ION-ELECTRON SYSTEM (eV)
  ---------------------------------------------------
  free  energy   TOTEN  =       -20.89292946 eV

  energy  without entropy=      -20.86500633  energy(sigma->0) =      -20.87896790
 


--------------------------------------------------------------------------------------------------------


    POTLOK:  cpu time    0.04: real time    0.05


--------------------------------------------------------------------------------------------------------




--------------------------------------------------------------------------------------------------------


  
 reached required accuracy - stopping structural energy minimisation
     LOOP+:  cpu time    4.72: real time    4.78
    4ORBIT:  cpu time    0.00: real time    0.00

 total amount of memory used by VASP on root node    45821. kBytes
========================================================================

   base      :      30000. kBytes
   nonl-proj :       9460. kBytes
   fftplans  :       1148. kBytes
   grid      :       3834. kBytes
   one-center:         64. kBytes
   wavefun   :       1315. kBytes
 
  
  
 General timing and accounting informations for this job:
 ========================================================
  
                  Total CPU time used (sec):        7.925
                            User time (sec):        7.743
                          System time (sec):        0.182
                         Elapsed time (sec):        8.319
  
                   Maximum memory used (kb):       87236.
                   Average memory used (kb):           0.
  
                          Minor page faults:        29032
                          Major page faults:            0
                 Voluntary context switches:         5706
