<?xml version="1.0" encoding="ISO-8859-1"?>
<modeling>
 <generator>
  <i name="program" type="string">vasp </i>
  <i name="version" type="string">5.3.3  </i>
  <i name="subversion" type="string">18Dez12 (build Dec 13 2014 13:36:02) complex                          parallel </i>
  <i name="platform" type="string">LinuxIFC </i>
  <i name="date" type="string">2018 11 28 </i>
  <i name="time" type="string">00:58:57 </i>
 </generator>
 <incar>
  <i type="string" name="PREC">normal</i>
  <i type="string" name="ALGO"> FAST</i>
  <i type="int" name="ISPIN">     1</i>
  <i type="int" name="IBRION">     2</i>
  <i name="EDIFF">      0.00000100</i>
  <i name="EDIFFG">     -0.02000000</i>
  <i type="int" name="NSW">   300</i>
  <i type="int" name="ISIF">     2</i>
  <i type="int" name="ISYM">     1</i>
  <i name="ENCUT">    700.00000000</i>
  <i type="int" name="ISMEAR">     0</i>
  <i name="SIGMA">      0.10000000</i>
  <i type="logical" name="LWAVE"> F  </i>
  <i type="logical" name="LCHARG"> F  </i>
 </incar>
 <kpoints>
  <generation param="Monkhorst-Pack">
   <v type="int" name="divisions">       6        6        6 </v>
   <v name="usershift">      0.00000000       0.00000000       0.00000000 </v>
   <v name="genvec1">      0.16666667       0.00000000       0.00000000 </v>
   <v name="genvec2">      0.00000000       0.16666667       0.00000000 </v>
   <v name="genvec3">      0.00000000       0.00000000       0.16666667 </v>
   <v name="shift">      0.50000000       0.50000000       0.50000000 </v>
  </generation>
  <varray name="kpointlist" >
   <v>       0.08333333       0.08333333       0.08333333 </v>
   <v>       0.25000000       0.08333333       0.08333333 </v>
   <v>       0.41666667       0.08333333       0.08333333 </v>
   <v>       0.25000000       0.25000000       0.08333333 </v>
   <v>       0.41666667       0.25000000       0.08333333 </v>
   <v>       0.41666667       0.41666667       0.08333333 </v>
   <v>       0.25000000       0.25000000       0.25000000 </v>
   <v>       0.41666667       0.25000000       0.25000000 </v>
   <v>       0.41666667       0.41666667       0.25000000 </v>
   <v>       0.41666667       0.41666667       0.41666667 </v>
  </varray>
  <varray name="weights" >
   <v>       0.03703704 </v>
   <v>       0.11111111 </v>
   <v>       0.11111111 </v>
   <v>       0.11111111 </v>
   <v>       0.22222222 </v>
   <v>       0.11111111 </v>
   <v>       0.03703704 </v>
   <v>       0.11111111 </v>
   <v>       0.11111111 </v>
   <v>       0.03703704 </v>
  </varray>
 </kpoints>
 <parameters>
  <separator name="general" >
   <i type="string" name="SYSTEM">unknown system</i>
   <i type="logical" name="LCOMPAT"> F  </i>
  </separator>
  <separator name="electronic" >
   <i type="string" name="PREC">normal</i>
   <i name="ENMAX">    700.00000000</i>
   <i name="ENAUG">    320.26400000</i>
   <i name="EDIFF">      0.00000100</i>
   <i type="int" name="IALGO">    68</i>
   <i type="int" name="IWAVPR">    11</i>
   <i type="int" name="NBANDS">    20</i>
   <i name="NELECT">     24.00000000</i>
   <i type="int" name="TURBO">     0</i>
   <i type="int" name="IRESTART">     0</i>
   <i type="int" name="NREBOOT">     0</i>
   <i type="int" name="NMIN">     0</i>
   <i name="EREF">      0.00000000</i>
   <separator name="electronic smearing" >
    <i type="int" name="ISMEAR">     0</i>
    <i name="SIGMA">      0.10000000</i>
    <i name="KSPACING">      0.50000000</i>
    <i type="logical" name="KGAMMA"> T  </i>
   </separator>
   <separator name="electronic projectors" >
    <i type="logical" name="LREAL"> F  </i>
    <v name="ROPT">      0.00000000</v>
    <i type="int" name="LMAXPAW">  -100</i>
    <i type="int" name="LMAXMIX">     2</i>
    <i type="logical" name="NLSPLINE"> F  </i>
   </separator>
   <separator name="electronic startup" >
    <i type="int" name="ISTART">     0</i>
    <i type="int" name="ICHARG">     2</i>
    <i type="int" name="INIWAV">     1</i>
   </separator>
   <separator name="electronic spin" >
    <i type="int" name="ISPIN">     1</i>
    <i type="logical" name="LNONCOLLINEAR"> F  </i>
    <v name="MAGMOM">      1.00000000      1.00000000      1.00000000      1.00000000      1.00000000      1.00000000      1.00000000      1.00000000</v>
    <i name="NUPDOWN">     -1.00000000</i>
    <i type="logical" name="LSORBIT"> F  </i>
    <v name="SAXIS">      0.00000000      0.00000000      1.00000000</v>
    <i type="logical" name="LSPIRAL"> F  </i>
    <v name="QSPIRAL">      0.00000000      0.00000000      0.00000000</v>
    <i type="logical" name="LZEROZ"> F  </i>
   </separator>
   <separator name="electronic exchange-correlation" >
    <i type="logical" name="LASPH"> F  </i>
    <i type="logical" name="LMETAGGA"> F  </i>
   </separator>
   <separator name="electronic convergence" >
    <i type="int" name="NELM">    60</i>
    <i type="int" name="NELMDL">    -5</i>
    <i type="int" name="NELMIN">     2</i>
    <i name="ENINI">    700.00000000</i>
    <separator name="electronic convergence detail" >
     <i type="logical" name="LDIAG"> T  </i>
     <i type="logical" name="LSUBROT"> T  </i>
     <i name="WEIMIN">      0.00100000</i>
     <i name="EBREAK">      0.00000001</i>
     <i name="DEPER">      0.30000000</i>
     <i type="int" name="NRMM">     4</i>
     <i name="TIME">      0.40000000</i>
    </separator>
   </separator>
   <separator name="electronic mixer" >
    <i name="AMIX">      0.40000000</i>
    <i name="BMIX">      1.00000000</i>
    <i name="AMIN">      0.10000000</i>
    <i name="AMIX_MAG">      1.60000000</i>
    <i name="BMIX_MAG">      1.00000000</i>
    <separator name="electronic mixer details" >
     <i type="int" name="IMIX">     4</i>
     <i type="int" name="MAXMIX">   -45</i>
     <i name="WC">    100.00000000</i>
     <i type="int" name="INIMIX">     1</i>
     <i type="int" name="MIXPRE">     1</i>
     <i type="int" name="MREMOVE">     5</i>
    </separator>
   </separator>
   <separator name="electronic dipolcorrection" >
    <i type="logical" name="LDIPOL"> F  </i>
    <i type="logical" name="LMONO"> F  </i>
    <i type="int" name="IDIPOL">     0</i>
    <i name="EPSILON">      1.00000000</i>
    <v name="DIPOL">   -100.00000000   -100.00000000   -100.00000000</v>
    <i name="EFIELD">      0.00000000</i>
   </separator>
  </separator>
  <separator name="grids" >
   <i type="int" name="NGX">    40</i>
   <i type="int" name="NGY">    40</i>
   <i type="int" name="NGZ">    40</i>
   <i type="int" name="NGXF">    80</i>
   <i type="int" name="NGYF">    80</i>
   <i type="int" name="NGZF">    80</i>
   <i type="logical" name="ADDGRID"> F  </i>
  </separator>
  <separator name="ionic" >
   <i type="int" name="NSW">   300</i>
   <i type="int" name="IBRION">     2</i>
   <i type="int" name="ISIF">     2</i>
   <i name="PSTRESS">      0.00000000</i>
   <i name="EDIFFG">     -0.02000000</i>
   <i type="int" name="NFREE">     1</i>
   <i name="POTIM">      0.50000000</i>
   <i name="SMASS">     -3.00000000</i>
   <i name="SCALEE">      1.00000000</i>
  </separator>
  <separator name="ionic md" >
   <i name="TEBEG">      0.00010000</i>
   <i name="TEEND">      0.00010000</i>
   <i type="int" name="NBLOCK">     1</i>
   <i type="int" name="KBLOCK">   300</i>
   <i type="int" name="NPACO">   256</i>
   <i name="APACO">     16.00000000</i>
  </separator>
  <separator name="symmetry" >
   <i type="int" name="ISYM">     1</i>
   <i name="SYMPREC">      0.00001000</i>
  </separator>
  <separator name="dos" >
   <i type="logical" name="LORBIT"> F  </i>
   <v name="RWIGS">     -1.00000000</v>
   <i type="int" name="NEDOS">   301</i>
   <i name="EMIN">     10.00000000</i>
   <i name="EMAX">    -10.00000000</i>
   <i name="EFERMI">      0.00000000</i>
  </separator>
  <separator name="writing" >
   <i type="int" name="NWRITE">     2</i>
   <i type="logical" name="LWAVE"> F  </i>
   <i type="logical" name="LCHARG"> F  </i>
   <i type="logical" name="LPARD"> F  </i>
   <i type="logical" name="LVTOT"> F  </i>
   <i type="logical" name="LVHAR"> F  </i>
   <i type="logical" name="LELF"> F  </i>
   <i type="logical" name="LOPTICS"> F  </i>
   <v name="STM">      0.00000000      0.00000000      0.00000000      0.00000000      0.00000000      0.00000000      0.00000000</v>
  </separator>
  <separator name="performance" >
   <i type="int" name="NPAR">    20</i>
   <i type="int" name="NSIM">     4</i>
   <i type="int" name="NBLK">    -1</i>
   <i type="logical" name="LPLANE"> T  </i>
   <i type="logical" name="LSCALAPACK"> T  </i>
   <i type="logical" name="LSCAAWARE"> F  </i>
   <i type="logical" name="LSCALU"> F  </i>
   <i type="logical" name="LASYNC"> F  </i>
   <i type="logical" name="LORBITALREAL"> F  </i>
  </separator>
  <separator name="miscellaneous" >
   <i type="int" name="IDIOT">     3</i>
   <i type="logical" name="LMUSIC"> F  </i>
   <v name="POMASS">     69.72300000</v>
   <v name="DARWINR">      0.00000000</v>
   <v name="DARWINV">      1.00000000</v>
   <i type="logical" name="LCORR"> T  </i>
  </separator>
  <i type="logical" name="GGA_COMPAT"> T  </i>
  <i type="logical" name="LBERRY"> F  </i>
  <i type="int" name="ICORELEVEL">     0</i>
  <i type="logical" name="LDAU"> F  </i>
  <i type="int" name="I_CONSTRAINED_M">     0</i>
  <separator name="electronic exchange-correlation" >
   <i type="string" name="GGA">--</i>
   <i type="int" name="VOSKOWN">     0</i>
   <i type="logical" name="LHFCALC"> F  </i>
   <i type="string" name="PRECFOCK"></i>
   <i type="logical" name="LSYMGRAD"> F  </i>
   <i type="logical" name="LHFONE"> F  </i>
   <i type="logical" name="LRHFCALC"> F  </i>
   <i type="logical" name="LTHOMAS"> F  </i>
   <i type="logical" name="LMODELHF"> F  </i>
   <i name="ENCUT4O">     -1.00000000</i>
   <i type="int" name="EXXOEP">     0</i>
   <i type="int" name="FOURORBIT">     0</i>
   <i name="AEXX">      0.00000000</i>
   <i name="HFALPHA">      0.00000000</i>
   <i name="MCALPHA">      0.00000000</i>
   <i name="ALDAX">      1.00000000</i>
   <i name="AGGAX">      1.00000000</i>
   <i name="ALDAC">      1.00000000</i>
   <i name="AGGAC">      1.00000000</i>
   <i type="int" name="NKREDX">     1</i>
   <i type="int" name="NKREDY">     1</i>
   <i type="int" name="NKREDZ">     1</i>
   <i type="logical" name="SHIFTRED"> F  </i>
   <i type="logical" name="ODDONLY"> F  </i>
   <i type="logical" name="EVENONLY"> F  </i>
   <i type="int" name="LMAXFOCK">     0</i>
   <i type="int" name="NMAXFOCKAE">     0</i>
   <i type="logical" name="LFOCKAEDFT"> F  </i>
   <i name="HFSCREEN">      0.00000000</i>
   <i name="HFSCREENC">      0.00000000</i>
   <i type="int" name="NBANDSGWLOW">     0</i>
  </separator>
  <separator name="vdW DFT" >
   <i type="logical" name="LUSE_VDW"> F  </i>
   <i name="Zab_VDW">     -0.84910000</i>
   <i name="PARAM1">      0.12340000</i>
   <i name="PARAM2">      1.00000000</i>
   <i name="PARAM3">      0.00000000</i>
  </separator>
  <separator name="model GW" >
   <i type="int" name="MODEL_GW">     0</i>
   <i name="MODEL_EPS0">     14.35410601</i>
   <i name="MODEL_ALPHA">      1.00000000</i>
  </separator>
  <separator name="linear response parameters" >
   <i type="logical" name="LEPSILON"> F  </i>
   <i type="logical" name="LRPA"> F  </i>
   <i type="logical" name="LNABLA"> F  </i>
   <i type="logical" name="LVEL"> F  </i>
   <i type="int" name="KINTER">     0</i>
   <i name="CSHIFT">      0.10000000</i>
   <i name="OMEGAMAX">     -1.00000000</i>
   <i name="DEG_THRESHOLD">      0.00200000</i>
  </separator>
  <separator name="orbital magnetization" >
   <i type="logical" name="NUCIND"> F  </i>
   <v name="MAGPOS">      0.00000000      0.00000000      0.00000000</v>
   <i type="logical" name="LNICSALL"> T  </i>
   <i type="logical" name="ORBITALMAG"> F  </i>
   <i type="logical" name="LMAGBLOCH"> F  </i>
   <i type="logical" name="LCHIMAG"> F  </i>
   <i type="logical" name="LGAUGE"> T  </i>
   <i type="int" name="MAGATOM">     0</i>
   <v name="MAGDIPOL">      0.00000000      0.00000000      0.00000000</v>
   <v name="AVECCONST">      0.00000000      0.00000000      0.00000000</v>
  </separator>
  <separator name="response functions" >
   <i type="logical" name="LADDER"> F  </i>
   <i type="logical" name="LFXC"> F  </i>
   <i type="logical" name="LHARTREE"> T  </i>
   <i type="int" name="IBSE">     0</i>
   <i type="logical" name="LTCTE"> F  </i>
   <i type="logical" name="LTETE"> F  </i>
   <i type="logical" name="LTRIPLET"> F  </i>
   <i type="logical" name="LFXCEPS"> F  </i>
   <i type="logical" name="L2ORDER"> F  </i>
   <i type="logical" name="LUSEW"> F  </i>
   <i name="ENCUTGW">     -2.00000000</i>
   <i name="ENCUTGWSOFT">     -2.00000000</i>
   <i name="ENCUTLF">     -1.00000000</i>
   <i type="int" name="LMAXMP2">    -1</i>
   <i name="SCISSOR">      0.00000000</i>
   <i type="int" name="NOMEGA">     0</i>
   <i type="int" name="NOMEGAR">     0</i>
   <i type="int" name="NBANDSGW">    -1</i>
   <i type="int" name="NBANDSO">    -1</i>
   <i type="int" name="NBANDSV">    -1</i>
   <i type="int" name="NELM">     1</i>
   <i type="int" name="DIM">     3</i>
   <i type="int" name="ANTIRES">     0</i>
   <i name="OMEGAMAX">    -30.00000000</i>
   <i name="OMEGATL">   -200.00000000</i>
   <i type="int" name="OMEGAGRID">     0</i>
   <i name="CSHIFT">     -0.10000000</i>
   <i type="logical" name="SELFENERGY"> F  </i>
   <i type="logical" name="LSPECTRAL"> F  </i>
   <i type="logical" name="ODDONLYGW"> F  </i>
   <i type="logical" name="EVENONLYGW"> F  </i>
   <i type="int" name="NKREDLFX">     1</i>
   <i type="int" name="NKREDLFY">     1</i>
   <i type="int" name="NKREDLFZ">     1</i>
   <i type="int" name="MAXMEM">  1800</i>
   <i type="int" name="TELESCOPE">     0</i>
  </separator>
 </parameters>
 <atominfo>
  <atoms>       8 </atoms>
  <types>       1 </types>
  <array name="atoms" >
   <dimension dim="1">ion</dimension>
   <field type="string">element</field>
   <field type="int">atomtype</field>
   <set>
    <rc><c>Ga</c><c>   1</c></rc>
    <rc><c>Ga</c><c>   1</c></rc>
    <rc><c>Ga</c><c>   1</c></rc>
    <rc><c>Ga</c><c>   1</c></rc>
    <rc><c>Ga</c><c>   1</c></rc>
    <rc><c>Ga</c><c>   1</c></rc>
    <rc><c>Ga</c><c>   1</c></rc>
    <rc><c>Ga</c><c>   1</c></rc>
   </set>
  </array>
  <array name="atomtypes" >
   <dimension dim="1">type</dimension>
   <field type="int">atomspertype</field>
   <field type="string">element</field>
   <field>mass</field>
   <field>valence</field>
   <field type="string">pseudopotential</field>
   <set>
    <rc><c>   8</c><c>Ga</c><c>     69.72300000</c><c>      3.00000000</c><c> PAW_PBE Ga 08Apr2002                   </c></rc>
   </set>
  </array>
 </atominfo>
 <structure name="initialpos" >
  <crystal>
   <varray name="basis" >
    <v>       5.76286300       0.00000000       0.00000000 </v>
    <v>       0.00000000       5.76286300       0.00000000 </v>
    <v>       0.00000000       0.00000000       5.76286300 </v>
   </varray>
   <i name="volume">    191.38808007 </i>
   <varray name="rec_basis" >
    <v>       0.17352486       0.00000000       0.00000000 </v>
    <v>       0.00000000       0.17352486       0.00000000 </v>
    <v>       0.00000000       0.00000000       0.17352486 </v>
   </varray>
  </crystal>
  <varray name="positions" >
   <v>       0.75000000       0.75000000       0.75000000 </v>
   <v>       0.50000000       0.00000000       0.00000000 </v>
   <v>       0.75000000       0.25000000       0.25000000 </v>
   <v>       0.50000000       0.50000000       0.50000000 </v>
   <v>       0.25000000       0.75000000       0.25000000 </v>
   <v>       0.00000000       0.00000000       0.50000000 </v>
   <v>       0.25000000       0.25000000       0.75000000 </v>
   <v>       0.00000000       0.50000000       0.00000000 </v>
  </varray>
  <varray name="selective"  type="logical" >
   <v type="logical" >  T  T  T </v>
   <v type="logical" >  T  T  T </v>
   <v type="logical" >  T  T  T </v>
   <v type="logical" >  T  T  T </v>
   <v type="logical" >  T  T  T </v>
   <v type="logical" >  T  T  T </v>
   <v type="logical" >  T  T  T </v>
   <v type="logical" >  T  T  T </v>
  </varray>
  <nose>
   <v>      -3.00000000       0.00000000       0.00010000       0.00010000 </v>
  </nose>
 </structure>
 <calculation>
  <scstep>
   <time name="dav">    0.24    0.24</time>
   <time name="total">    0.28    0.30</time>
   <energy>
    <i name="alphaZ">     59.64982895 </i>
    <i name="ewald">   -484.56382983 </i>
    <i name="hartreedc">    -22.55400904 </i>
    <i name="XCdc">   -155.28695466 </i>
    <i name="pawpsdc">    330.10196642 </i>
    <i name="pawaedc">   -140.54714835 </i>
    <i name="eentropy">     -0.00520244 </i>
    <i name="bandstr">     15.46081221 </i>
    <i name="atom">    470.95023928 </i>
    <i name="e_fr_energy">     73.20570254 </i>
    <i name="e_wo_entrp">     73.21090498 </i>
    <i name="e_0_energy">     73.20830376 </i>
   </energy>
  </scstep>
  <scstep>
   <time name="dav">    0.34    0.34</time>
   <time name="total">    0.34    0.34</time>
   <energy>
    <i name="e_fr_energy">    -19.10186339 </i>
    <i name="e_wo_entrp">    -19.07583677 </i>
    <i name="e_0_energy">    -19.08885008 </i>
   </energy>
  </scstep>
  <scstep>
   <time name="dav">    0.27    0.27</time>
   <time name="total">    0.27    0.28</time>
   <energy>
    <i name="e_fr_energy">    -21.01062047 </i>
    <i name="e_wo_entrp">    -20.98278241 </i>
    <i name="e_0_energy">    -20.99670144 </i>
   </energy>
  </scstep>
  <scstep>
   <time name="dav">    0.38    0.38</time>
   <time name="total">    0.39    0.39</time>
   <energy>
    <i name="e_fr_energy">    -21.01789822 </i>
    <i name="e_wo_entrp">    -20.99011681 </i>
    <i name="e_0_energy">    -21.00400751 </i>
   </energy>
  </scstep>
  <scstep>
   <time name="dav">    0.28    0.28</time>
   <time name="total">    0.41    0.42</time>
   <energy>
    <i name="e_fr_energy">    -21.01789879 </i>
    <i name="e_wo_entrp">    -20.99011738 </i>
    <i name="e_0_energy">    -21.00400808 </i>
   </energy>
  </scstep>
  <scstep>
   <time name="diag">    0.06    0.08</time>
   <time name="diis">    0.19    0.19</time>
   <time name="orth">    0.00    0.00</time>
   <time name="total">    0.40    0.43</time>
   <energy>
    <i name="e_fr_energy">    -20.93521899 </i>
    <i name="e_wo_entrp">    -20.90740408 </i>
    <i name="e_0_energy">    -20.92131153 </i>
   </energy>
  </scstep>
  <scstep>
   <time name="diag">    0.04    0.04</time>
   <time name="diis">    0.19    0.19</time>
   <time name="orth">    0.00    0.00</time>
   <time name="total">    0.38    0.38</time>
   <energy>
    <i name="e_fr_energy">    -20.89262148 </i>
    <i name="e_wo_entrp">    -20.86474404 </i>
    <i name="e_0_energy">    -20.87868276 </i>
   </energy>
  </scstep>
  <scstep>
   <time name="diag">    0.04    0.04</time>
   <time name="diis">    0.19    0.19</time>
   <time name="orth">    0.00    0.00</time>
   <time name="total">    0.38    0.38</time>
   <energy>
    <i name="e_fr_energy">    -20.89288117 </i>
    <i name="e_wo_entrp">    -20.86497668 </i>
    <i name="e_0_energy">    -20.87892893 </i>
   </energy>
  </scstep>
  <scstep>
   <time name="diag">    0.04    0.04</time>
   <time name="diis">    0.19    0.19</time>
   <time name="orth">    0.00    0.00</time>
   <time name="total">    0.38    0.38</time>
   <energy>
    <i name="e_fr_energy">    -20.89291832 </i>
    <i name="e_wo_entrp">    -20.86500115 </i>
    <i name="e_0_energy">    -20.87895973 </i>
   </energy>
  </scstep>
  <scstep>
   <time name="diag">    0.04    0.04</time>
   <time name="diis">    0.19    0.19</time>
   <time name="orth">    0.00    0.00</time>
   <time name="total">    0.38    0.38</time>
   <energy>
    <i name="e_fr_energy">    -20.89292896 </i>
    <i name="e_wo_entrp">    -20.86500700 </i>
    <i name="e_0_energy">    -20.87896798 </i>
   </energy>
  </scstep>
  <scstep>
   <time name="diag">    0.04    0.04</time>
   <time name="diis">    0.18    0.18</time>
   <time name="orth">    0.00    0.00</time>
   <time name="total">    0.24    0.25</time>
   <energy>
    <i name="alphaZ">     59.64982895 </i>
    <i name="ewald">   -484.56382983 </i>
    <i name="hartreedc">    -24.23342087 </i>
    <i name="XCdc">   -153.72284082 </i>
    <i name="pawpsdc">    420.23926597 </i>
    <i name="pawaedc">   -232.09819436 </i>
    <i name="eentropy">     -0.02792313 </i>
    <i name="bandstr">    -77.08605464 </i>
    <i name="atom">    470.95023928 </i>
    <i name="e_fr_energy">    -20.89292946 </i>
    <i name="e_wo_entrp">    -20.86500633 </i>
    <i name="e_0_energy">    -20.87896790 </i>
   </energy>
  </scstep>
  <structure>
   <crystal>
    <varray name="basis" >
     <v>       5.76286300       0.00000000       0.00000000 </v>
     <v>       0.00000000       5.76286300       0.00000000 </v>
     <v>       0.00000000       0.00000000       5.76286300 </v>
    </varray>
    <i name="volume">    191.38808007 </i>
    <varray name="rec_basis" >
     <v>       0.17352486       0.00000000       0.00000000 </v>
     <v>       0.00000000       0.17352486       0.00000000 </v>
     <v>       0.00000000       0.00000000       0.17352486 </v>
    </varray>
   </crystal>
   <varray name="positions" >
    <v>       0.75000000       0.75000000       0.75000000 </v>
    <v>       0.50000000       0.00000000       0.00000000 </v>
    <v>       0.75000000       0.25000000       0.25000000 </v>
    <v>       0.50000000       0.50000000       0.50000000 </v>
    <v>       0.25000000       0.75000000       0.25000000 </v>
    <v>       0.00000000       0.00000000       0.50000000 </v>
    <v>       0.25000000       0.25000000       0.75000000 </v>
    <v>       0.00000000       0.50000000       0.00000000 </v>
   </varray>
  </structure>
  <varray name="forces" >
   <v>       0.00000000       0.00000000      -0.00000000 </v>
   <v>      -0.00000000      -0.00000000      -0.00000000 </v>
   <v>       0.00000000      -0.00000000      -0.00000000 </v>
   <v>      -0.00000000      -0.00000000      -0.00000000 </v>
   <v>       0.00000000       0.00000000       0.00000000 </v>
   <v>      -0.00000000      -0.00000000      -0.00000000 </v>
   <v>       0.00000000       0.00000000      -0.00000000 </v>
   <v>      -0.00000000       0.00000000       0.00000000 </v>
  </varray>
  <varray name="stress" >
   <v>      27.69904823       0.00000000       0.00000000 </v>
   <v>       0.00000000      27.69904823       0.00000000 </v>
   <v>      -0.00000000       0.00000000      27.69904823 </v>
  </varray>
  <energy>
   <i name="e_fr_energy">    -20.89292946 </i>
   <i name="e_wo_entrp">    -20.87896790 </i>
   <i name="e_0_energy">     -0.02792313 </i>
  </energy>
  <time name="totalsc">    4.72    4.78</time>
  <eigenvalues>
   <array>
    <dimension dim="1">band</dimension>
    <dimension dim="2">kpoint</dimension>
    <dimension dim="3">spin</dimension>
    <field>eigene</field>
    <field>occ</field>
    <set>
     <set comment="spin 1">
      <set comment="kpoint 1">
       <r>   -8.7693    1.0000 </r>
       <r>   -5.4287    1.0000 </r>
       <r>   -5.4287    1.0000 </r>
       <r>   -5.4287    1.0000 </r>
       <r>   -4.1828    1.0000 </r>
       <r>   -4.1828    1.0000 </r>
       <r>   -4.1828    1.0000 </r>
       <r>   -0.1159    1.0000 </r>
       <r>   -0.1159    1.0000 </r>
       <r>   -0.1159    1.0000 </r>
       <r>    0.3126    1.0000 </r>
       <r>    0.3126    1.0000 </r>
       <r>    0.3126    1.0000 </r>
       <r>    2.4303    0.0000 </r>
       <r>    3.4646    0.0000 </r>
       <r>    3.4646    0.0000 </r>
       <r>    3.6590    0.0000 </r>
       <r>    3.6590    0.0000 </r>
       <r>    3.6590    0.0000 </r>
       <r>    4.2511    0.0000 </r>
      </set>
      <set comment="kpoint 2">
       <r>   -8.5391    1.0000 </r>
       <r>   -6.5104    1.0000 </r>
       <r>   -5.3368    1.0000 </r>
       <r>   -5.3368    1.0000 </r>
       <r>   -4.1755    1.0000 </r>
       <r>   -4.1755    1.0000 </r>
       <r>   -2.8331    1.0000 </r>
       <r>   -0.7182    1.0000 </r>
       <r>   -0.7182    1.0000 </r>
       <r>    0.1096    1.0000 </r>
       <r>    0.1096    1.0000 </r>
       <r>    0.1830    1.0000 </r>
       <r>    0.5613    0.9867 </r>
       <r>    1.1972    0.0000 </r>
       <r>    2.6277    0.0000 </r>
       <r>    2.7879    0.0000 </r>
       <r>    3.7718    0.0000 </r>
       <r>    4.4216    0.0000 </r>
       <r>    4.4216    0.0000 </r>
       <r>    4.7271    0.0000 </r>
      </set>
      <set comment="kpoint 3">
       <r>   -8.0811    1.0000 </r>
       <r>   -7.4012    1.0000 </r>
       <r>   -5.2297    1.0000 </r>
       <r>   -5.2297    1.0000 </r>
       <r>   -4.1844    1.0000 </r>
       <r>   -4.1844    1.0000 </r>
       <r>   -1.4467    1.0000 </r>
       <r>   -1.0606    1.0000 </r>
       <r>   -1.0606    1.0000 </r>
       <r>   -0.2356    1.0000 </r>
       <r>   -0.2356    1.0000 </r>
       <r>   -0.0970    1.0000 </r>
       <r>    0.7876    0.1629 </r>
       <r>    1.0499    0.0000 </r>
       <r>    1.6903    0.0000 </r>
       <r>    1.7565    0.0000 </r>
       <r>    4.0937    0.0000 </r>
       <r>    4.6320    0.0000 </r>
       <r>    5.5550    0.0000 </r>
       <r>    5.9867    0.0000 </r>
      </set>
      <set comment="kpoint 4">
       <r>   -8.3124    1.0000 </r>
       <r>   -6.3440    1.0000 </r>
       <r>   -6.3440    1.0000 </r>
       <r>   -5.4356    1.0000 </r>
       <r>   -4.0916    1.0000 </r>
       <r>   -3.0600    1.0000 </r>
       <r>   -3.0600    1.0000 </r>
       <r>   -1.1937    1.0000 </r>
       <r>   -0.3794    1.0000 </r>
       <r>   -0.3794    1.0000 </r>
       <r>    0.1167    1.0000 </r>
       <r>    0.4914    0.9993 </r>
       <r>    0.4914    0.9993 </r>
       <r>    0.7381    0.3893 </r>
       <r>    1.8697    0.0000 </r>
       <r>    3.1774    0.0000 </r>
       <r>    4.0983    0.0000 </r>
       <r>    4.6408    0.0000 </r>
       <r>    4.6408    0.0000 </r>
       <r>    5.2814    0.0000 </r>
      </set>
      <set comment="kpoint 5">
       <r>   -7.8631    1.0000 </r>
       <r>   -7.2005    1.0000 </r>
       <r>   -6.0447    1.0000 </r>
       <r>   -5.6965    1.0000 </r>
       <r>   -3.8445    1.0000 </r>
       <r>   -3.4522    1.0000 </r>
       <r>   -1.9953    1.0000 </r>
       <r>   -1.2237    1.0000 </r>
       <r>   -0.9601    1.0000 </r>
       <r>   -0.8939    1.0000 </r>
       <r>    0.2146    1.0000 </r>
       <r>    0.4910    0.9993 </r>
       <r>    0.7171    0.5059 </r>
       <r>    0.9805    0.0001 </r>
       <r>    1.2877    0.0000 </r>
       <r>    2.3652    0.0000 </r>
       <r>    5.0265    0.0000 </r>
       <r>    5.0618    0.0000 </r>
       <r>    5.5659    0.0000 </r>
       <r>    6.2030    0.0000 </r>
      </set>
      <set comment="kpoint 6">
       <r>   -7.4347    1.0000 </r>
       <r>   -6.8149    1.0000 </r>
       <r>   -6.8149    1.0000 </r>
       <r>   -6.2845    1.0000 </r>
       <r>   -3.3387    1.0000 </r>
       <r>   -2.6987    1.0000 </r>
       <r>   -2.6987    1.0000 </r>
       <r>   -1.8743    1.0000 </r>
       <r>   -0.9985    1.0000 </r>
       <r>   -0.4747    1.0000 </r>
       <r>   -0.4747    1.0000 </r>
       <r>    0.1740    1.0000 </r>
       <r>    1.5152    0.0000 </r>
       <r>    1.5818    0.0000 </r>
       <r>    1.5818    0.0000 </r>
       <r>    2.4487    0.0000 </r>
       <r>    4.8407    0.0000 </r>
       <r>    5.4957    0.0000 </r>
       <r>    5.8284    0.0000 </r>
       <r>    5.8285    0.0000 </r>
      </set>
      <set comment="kpoint 7">
       <r>   -8.0911    1.0000 </r>
       <r>   -6.2346    1.0000 </r>
       <r>   -6.2346    1.0000 </r>
       <r>   -6.2346    1.0000 </r>
       <r>   -3.4208    1.0000 </r>
       <r>   -3.4208    1.0000 </r>
       <r>   -3.4208    1.0000 </r>
       <r>   -0.9074    1.0000 </r>
       <r>   -0.4949    1.0000 </r>
       <r>   -0.4949    1.0000 </r>
       <r>   -0.4949    1.0000 </r>
       <r>    0.9613    0.0003 </r>
       <r>    0.9613    0.0003 </r>
       <r>    0.9613    0.0003 </r>
       <r>    2.6587    0.0000 </r>
       <r>    2.6587    0.0000 </r>
       <r>    4.3799    0.0000 </r>
       <r>    4.3799    0.0000 </r>
       <r>    4.3799    0.0000 </r>
       <r>    4.4512    0.0000 </r>
      </set>
      <set comment="kpoint 8">
       <r>   -7.6551    1.0000 </r>
       <r>   -7.0220    1.0000 </r>
       <r>   -6.1046    1.0000 </r>
       <r>   -6.1046    1.0000 </r>
       <r>   -3.7710    1.0000 </r>
       <r>   -3.7710    1.0000 </r>
       <r>   -2.7011    1.0000 </r>
       <r>   -1.8769    1.0000 </r>
       <r>   -0.4354    1.0000 </r>
       <r>   -0.4354    1.0000 </r>
       <r>    0.6612    0.7898 </r>
       <r>    1.0290    0.0000 </r>
       <r>    1.0290    0.0000 </r>
       <r>    1.3918    0.0000 </r>
       <r>    1.9437    0.0000 </r>
       <r>    1.9889    0.0000 </r>
       <r>    4.8785    0.0000 </r>
       <r>    4.9778    0.0000 </r>
       <r>    5.2565    0.0000 </r>
       <r>    5.2565    0.0000 </r>
      </set>
      <set comment="kpoint 9">
       <r>   -7.2538    1.0000 </r>
       <r>   -6.7010    1.0000 </r>
       <r>   -6.7010    1.0000 </r>
       <r>   -6.3382    1.0000 </r>
       <r>   -3.8043    1.0000 </r>
       <r>   -3.3963    1.0000 </r>
       <r>   -3.3963    1.0000 </r>
       <r>   -2.7429    1.0000 </r>
       <r>    0.0649    1.0000 </r>
       <r>    0.5202    0.9974 </r>
       <r>    0.5202    0.9974 </r>
       <r>    1.3165    0.0000 </r>
       <r>    1.6585    0.0000 </r>
       <r>    1.6955    0.0000 </r>
       <r>    1.6955    0.0000 </r>
       <r>    2.3638    0.0000 </r>
       <r>    4.7864    0.0000 </r>
       <r>    4.9847    0.0000 </r>
       <r>    5.3534    0.0000 </r>
       <r>    5.3535    0.0000 </r>
      </set>
      <set comment="kpoint 10">
       <r>   -6.9289    1.0000 </r>
       <r>   -6.5651    1.0000 </r>
       <r>   -6.5651    1.0000 </r>
       <r>   -6.5651    1.0000 </r>
       <r>   -3.9066    1.0000 </r>
       <r>   -3.9066    1.0000 </r>
       <r>   -3.9066    1.0000 </r>
       <r>   -3.4999    1.0000 </r>
       <r>    1.3767    0.0000 </r>
       <r>    1.3767    0.0000 </r>
       <r>    1.3767    0.0000 </r>
       <r>    1.9046    0.0000 </r>
       <r>    1.9046    0.0000 </r>
       <r>    1.9046    0.0000 </r>
       <r>    2.1710    0.0000 </r>
       <r>    2.1710    0.0000 </r>
       <r>    4.0429    0.0000 </r>
       <r>    4.6701    0.0000 </r>
       <r>    4.6701    0.0000 </r>
       <r>    4.6701    0.0000 </r>
      </set>
     </set>
    </set>
   </array>
  </eigenvalues>
  <separator name="orbital magnetization" >
   <v name="MAGDIPOLOUT">      0.00000000      0.00000000      0.00000000</v>
  </separator>
  <dos>
   <i name="efermi">      0.71817391 </i>
   <total>
    <array>
     <dimension dim="1">gridpoints</dimension>
     <dimension dim="2">spin</dimension>
     <field>energy</field>
     <field>total</field>
     <field>integrated</field>
     <set>
      <set comment="spin 1">
       <r>    -9.7693     0.0000     0.0000 </r>
       <r>    -9.7127     0.0000     0.0000 </r>
       <r>    -9.6561     0.0000     0.0000 </r>
       <r>    -9.5996     0.0000     0.0000 </r>
       <r>    -9.5430     0.0000     0.0000 </r>
       <r>    -9.4864     0.0000     0.0000 </r>
       <r>    -9.4298     0.0000     0.0000 </r>
       <r>    -9.3733     0.0000     0.0000 </r>
       <r>    -9.3167     0.0000     0.0000 </r>
       <r>    -9.2601     0.0000     0.0000 </r>
       <r>    -9.2035     0.0000     0.0000 </r>
       <r>    -9.1470     0.0000     0.0000 </r>
       <r>    -9.0904     0.0000     0.0000 </r>
       <r>    -9.0338     0.0001     0.0000 </r>
       <r>    -8.9772     0.0020     0.0001 </r>
       <r>    -8.9207     0.0190     0.0012 </r>
       <r>    -8.8641     0.0967     0.0067 </r>
       <r>    -8.8075     0.2678     0.0218 </r>
       <r>    -8.7509     0.4083     0.0449 </r>
       <r>    -8.6944     0.3810     0.0665 </r>
       <r>    -8.6378     0.4125     0.0898 </r>
       <r>    -8.5812     0.7991     0.1350 </r>
       <r>    -8.5246     1.2088     0.2034 </r>
       <r>    -8.4681     1.0768     0.2643 </r>
       <r>    -8.4115     0.7418     0.3063 </r>
       <r>    -8.3549     0.8815     0.3562 </r>
       <r>    -8.2983     1.2208     0.4252 </r>
       <r>    -8.2418     1.0919     0.4870 </r>
       <r>    -8.1852     0.8125     0.5330 </r>
       <r>    -8.1286     1.1017     0.5953 </r>
       <r>    -8.0720     1.6114     0.6865 </r>
       <r>    -8.0155     1.5106     0.7719 </r>
       <r>    -7.9589     1.2422     0.8422 </r>
       <r>    -7.9023     1.7637     0.9420 </r>
       <r>    -7.8458     2.4529     1.0807 </r>
       <r>    -7.7892     2.1069     1.1999 </r>
       <r>    -7.7326     1.3296     1.2752 </r>
       <r>    -7.6760     1.1952     1.3428 </r>
       <r>    -7.6195     1.2648     1.4143 </r>
       <r>    -7.5629     0.9903     1.4704 </r>
       <r>    -7.5063     1.0086     1.5274 </r>
       <r>    -7.4497     1.7941     1.6289 </r>
       <r>    -7.3932     2.4909     1.7698 </r>
       <r>    -7.3366     2.4141     1.9064 </r>
       <r>    -7.2800     2.5406     2.0501 </r>
       <r>    -7.2234     3.3311     2.2386 </r>
       <r>    -7.1669     3.4152     2.4318 </r>
       <r>    -7.1103     2.3890     2.5670 </r>
       <r>    -7.0537     1.6336     2.6594 </r>
       <r>    -6.9971     1.5659     2.7480 </r>
       <r>    -6.9406     1.5593     2.8362 </r>
       <r>    -6.8840     1.8152     2.9389 </r>
       <r>    -6.8274     2.6705     3.0900 </r>
       <r>    -6.7708     3.4652     3.2860 </r>
       <r>    -6.7143     3.6451     3.4922 </r>
       <r>    -6.6577     3.2687     3.6771 </r>
       <r>    -6.6011     2.7422     3.8323 </r>
       <r>    -6.5445     2.6062     3.9797 </r>
       <r>    -6.4880     2.5011     4.1212 </r>
       <r>    -6.4314     2.4546     4.2601 </r>
       <r>    -6.3748     3.4876     4.4574 </r>
       <r>    -6.3182     4.9922     4.7398 </r>
       <r>    -6.2617     5.0777     5.0271 </r>
       <r>    -6.2051     3.9616     5.2512 </r>
       <r>    -6.1485     3.5281     5.4508 </r>
       <r>    -6.0919     4.2906     5.6936 </r>
       <r>    -6.0354     4.5342     5.9501 </r>
       <r>    -5.9788     3.1360     6.1275 </r>
       <r>    -5.9222     1.3145     6.2019 </r>
       <r>    -5.8657     0.3784     6.2233 </r>
       <r>    -5.8091     0.4151     6.2467 </r>
       <r>    -5.7525     1.2477     6.3173 </r>
       <r>    -5.6959     2.2711     6.4458 </r>
       <r>    -5.6394     2.2701     6.5742 </r>
       <r>    -5.5828     1.3427     6.6502 </r>
       <r>    -5.5262     0.9793     6.7056 </r>
       <r>    -5.4696     1.8880     6.8124 </r>
       <r>    -5.4131     3.3256     7.0006 </r>
       <r>    -5.3565     4.1863     7.2374 </r>
       <r>    -5.2999     4.2770     7.4794 </r>
       <r>    -5.2433     3.9138     7.7008 </r>
       <r>    -5.1868     3.0196     7.8716 </r>
       <r>    -5.1302     1.6303     7.9639 </r>
       <r>    -5.0736     0.5312     7.9939 </r>
       <r>    -5.0170     0.0975     7.9994 </r>
       <r>    -4.9605     0.0098     8.0000 </r>
       <r>    -4.9039     0.0005     8.0000 </r>
       <r>    -4.8473     0.0000     8.0000 </r>
       <r>    -4.7907     0.0000     8.0000 </r>
       <r>    -4.7342     0.0000     8.0000 </r>
       <r>    -4.6776     0.0000     8.0000 </r>
       <r>    -4.6210     0.0000     8.0000 </r>
       <r>    -4.5644     0.0000     8.0000 </r>
       <r>    -4.5079     0.0000     8.0000 </r>
       <r>    -4.4513     0.0013     8.0001 </r>
       <r>    -4.3947     0.0232     8.0014 </r>
       <r>    -4.3381     0.2323     8.0145 </r>
       <r>    -4.2816     1.2666     8.0862 </r>
       <r>    -4.2250     3.7985     8.3011 </r>
       <r>    -4.1684     6.3758     8.6618 </r>
       <r>    -4.1119     6.2096     9.0131 </r>
       <r>    -4.0553     3.7942     9.2277 </r>
       <r>    -3.9987     1.9053     9.3355 </r>
       <r>    -3.9421     1.9143     9.4438 </r>
       <r>    -3.8856     3.5754     9.6461 </r>
       <r>    -3.8290     5.5235     9.9586 </r>
       <r>    -3.7724     5.9239    10.2937 </r>
       <r>    -3.7158     4.1872    10.5306 </r>
       <r>    -3.6593     1.8739    10.6366 </r>
       <r>    -3.6027     0.7123    10.6769 </r>
       <r>    -3.5461     1.1625    10.7427 </r>
       <r>    -3.4895     3.1849    10.9229 </r>
       <r>    -3.4330     5.7531    11.2484 </r>
       <r>    -3.3764     6.5685    11.6200 </r>
       <r>    -3.3198     4.8305    11.8933 </r>
       <r>    -3.2632     2.3340    12.0253 </r>
       <r>    -3.2067     0.8544    12.0736 </r>
       <r>    -3.1501     0.7867    12.1182 </r>
       <r>    -3.0935     1.7175    12.2153 </r>
       <r>    -3.0369     2.4444    12.3536 </r>
       <r>    -2.9804     1.9690    12.4650 </r>
       <r>    -2.9238     1.1550    12.5303 </r>
       <r>    -2.8672     1.2602    12.6016 </r>
       <r>    -2.8106     2.3292    12.7334 </r>
       <r>    -2.7541     3.9229    12.9553 </r>
       <r>    -2.6975     5.0286    13.2398 </r>
       <r>    -2.6409     4.1831    13.4765 </r>
       <r>    -2.5843     2.0475    13.5923 </r>
       <r>    -2.5278     0.5654    13.6243 </r>
       <r>    -2.4712     0.0864    13.6292 </r>
       <r>    -2.4146     0.0072    13.6296 </r>
       <r>    -2.3581     0.0003    13.6296 </r>
       <r>    -2.3015     0.0001    13.6296 </r>
       <r>    -2.2449     0.0016    13.6297 </r>
       <r>    -2.1883     0.0233    13.6310 </r>
       <r>    -2.1318     0.1867    13.6416 </r>
       <r>    -2.0752     0.8221    13.6881 </r>
       <r>    -2.0186     2.0477    13.8040 </r>
       <r>    -1.9620     3.1378    13.9815 </r>
       <r>    -1.9055     3.4787    14.1783 </r>
       <r>    -1.8489     3.0919    14.3532 </r>
       <r>    -1.7923     1.9678    14.4645 </r>
       <r>    -1.7357     0.7651    14.5078 </r>
       <r>    -1.6792     0.1697    14.5174 </r>
       <r>    -1.6226     0.0434    14.5199 </r>
       <r>    -1.5660     0.1557    14.5287 </r>
       <r>    -1.5094     0.5566    14.5602 </r>
       <r>    -1.4529     1.0959    14.6222 </r>
       <r>    -1.3963     1.2266    14.6916 </r>
       <r>    -1.3397     1.0867    14.7530 </r>
       <r>    -1.2831     1.7278    14.8508 </r>
       <r>    -1.2266     3.1930    15.0314 </r>
       <r>    -1.1700     3.9625    15.2556 </r>
       <r>    -1.1134     3.8347    15.4725 </r>
       <r>    -1.0568     4.3505    15.7187 </r>
       <r>    -1.0003     5.5988    16.0354 </r>
       <r>    -0.9437     6.3781    16.3963 </r>
       <r>    -0.8871     5.7887    16.7237 </r>
       <r>    -0.8305     4.0394    16.9523 </r>
       <r>    -0.7740     2.7599    17.1084 </r>
       <r>    -0.7174     2.6510    17.2584 </r>
       <r>    -0.6608     2.3769    17.3929 </r>
       <r>    -0.6042     1.7205    17.4902 </r>
       <r>    -0.5477     2.3739    17.6245 </r>
       <r>    -0.4911     4.8648    17.8997 </r>
       <r>    -0.4345     7.0773    18.3001 </r>
       <r>    -0.3780     6.8344    18.6868 </r>
       <r>    -0.3214     4.9027    18.9641 </r>
       <r>    -0.2648     3.5745    19.1664 </r>
       <r>    -0.2082     3.3646    19.3567 </r>
       <r>    -0.1517     3.3508    19.5463 </r>
       <r>    -0.0951     3.1639    19.7253 </r>
       <r>    -0.0385     2.6773    19.8767 </r>
       <r>     0.0181     2.7511    20.0324 </r>
       <r>     0.0746     4.5289    20.2886 </r>
       <r>     0.1312     6.9241    20.6803 </r>
       <r>     0.1878     7.7989    21.1215 </r>
       <r>     0.2444     6.5346    21.4912 </r>
       <r>     0.3009     4.2768    21.7332 </r>
       <r>     0.3575     2.7087    21.8864 </r>
       <r>     0.4141     3.1396    22.0640 </r>
       <r>     0.4707     5.8729    22.3963 </r>
       <r>     0.5272     8.2203    22.8614 </r>
       <r>     0.5838     7.3797    23.2789 </r>
       <r>     0.6404     5.4412    23.5867 </r>
       <r>     0.6970     5.2197    23.8820 </r>
       <r>     0.7535     5.4799    24.1920 </r>
       <r>     0.8101     4.3258    24.4367 </r>
       <r>     0.8667     2.8406    24.5974 </r>
       <r>     0.9233     3.2501    24.7813 </r>
       <r>     0.9798     5.4648    25.0905 </r>
       <r>     1.0364     6.6983    25.4694 </r>
       <r>     1.0930     5.3075    25.7697 </r>
       <r>     1.1496     3.2430    25.9532 </r>
       <r>     1.2061     2.8291    26.1132 </r>
       <r>     1.2627     3.9763    26.3382 </r>
       <r>     1.3193     5.2124    26.6331 </r>
       <r>     1.3758     5.2362    26.9293 </r>
       <r>     1.4324     4.1312    27.1630 </r>
       <r>     1.4890     3.2982    27.3496 </r>
       <r>     1.5456     3.7514    27.5619 </r>
       <r>     1.6021     5.0037    27.8449 </r>
       <r>     1.6587     6.2206    28.1969 </r>
       <r>     1.7153     6.5450    28.5671 </r>
       <r>     1.7719     5.3284    28.8686 </r>
       <r>     1.8284     3.9007    29.0893 </r>
       <r>     1.8850     3.8105    29.3048 </r>
       <r>     1.9416     4.2220    29.5437 </r>
       <r>     1.9982     3.6479    29.7501 </r>
       <r>     2.0547     2.2367    29.8766 </r>
       <r>     2.1113     1.1885    29.9439 </r>
       <r>     2.1679     0.9521    29.9977 </r>
       <r>     2.2245     1.0428    30.0567 </r>
       <r>     2.2810     1.6020    30.1473 </r>
       <r>     2.3376     3.1665    30.3265 </r>
       <r>     2.3942     4.5991    30.5867 </r>
       <r>     2.4508     4.2473    30.8270 </r>
       <r>     2.5073     2.6924    30.9793 </r>
       <r>     2.5639     1.7100    31.0760 </r>
       <r>     2.6205     1.8843    31.1826 </r>
       <r>     2.6771     2.2053    31.3074 </r>
       <r>     2.7336     1.9947    31.4202 </r>
       <r>     2.7902     1.6632    31.5143 </r>
       <r>     2.8468     1.2282    31.5838 </r>
       <r>     2.9034     0.6076    31.6182 </r>
       <r>     2.9599     0.1767    31.6282 </r>
       <r>     3.0165     0.0678    31.6320 </r>
       <r>     3.0731     0.2323    31.6452 </r>
       <r>     3.1297     0.7055    31.6851 </r>
       <r>     3.1862     1.1780    31.7517 </r>
       <r>     3.2428     1.0741    31.8125 </r>
       <r>     3.2994     0.5549    31.8439 </r>
       <r>     3.3559     0.2809    31.8598 </r>
       <r>     3.4125     0.4632    31.8860 </r>
       <r>     3.4691     0.7865    31.9305 </r>
       <r>     3.5257     0.8385    31.9779 </r>
       <r>     3.5822     0.8239    32.0245 </r>
       <r>     3.6388     1.1884    32.0918 </r>
       <r>     3.6954     1.6618    32.1858 </r>
       <r>     3.7520     1.8033    32.2878 </r>
       <r>     3.8085     1.5166    32.3736 </r>
       <r>     3.8651     0.8900    32.4240 </r>
       <r>     3.9217     0.4055    32.4469 </r>
       <r>     3.9783     0.5634    32.4788 </r>
       <r>     4.0348     1.5109    32.5642 </r>
       <r>     4.0914     2.6097    32.7119 </r>
       <r>     4.1480     2.6286    32.8606 </r>
       <r>     4.2046     1.6725    32.9552 </r>
       <r>     4.2611     1.0654    33.0155 </r>
       <r>     4.3177     1.4871    33.0996 </r>
       <r>     4.3743     2.8392    33.2603 </r>
       <r>     4.4309     3.9155    33.4818 </r>
       <r>     4.4874     3.4185    33.6752 </r>
       <r>     4.5440     2.5790    33.8211 </r>
       <r>     4.6006     3.4915    34.0186 </r>
       <r>     4.6572     5.3584    34.3218 </r>
       <r>     4.7137     5.8140    34.6507 </r>
       <r>     4.7703     4.9752    34.9321 </r>
       <r>     4.8269     4.3525    35.1784 </r>
       <r>     4.8835     4.2185    35.4170 </r>
       <r>     4.9400     4.7210    35.6841 </r>
       <r>     4.9966     6.1270    36.0308 </r>
       <r>     5.0532     6.8561    36.4186 </r>
       <r>     5.1097     5.3232    36.7198 </r>
       <r>     5.1663     3.2466    36.9035 </r>
       <r>     5.2229     3.1772    37.0832 </r>
       <r>     5.2795     4.5700    37.3418 </r>
       <r>     5.3360     5.1113    37.6309 </r>
       <r>     5.3926     4.1901    37.8680 </r>
       <r>     5.4492     3.2394    38.0512 </r>
       <r>     5.5058     3.6613    38.2584 </r>
       <r>     5.5623     4.5681    38.5168 </r>
       <r>     5.6189     3.9297    38.7391 </r>
       <r>     5.6755     2.0964    38.8577 </r>
       <r>     5.7321     1.1311    38.9217 </r>
       <r>     5.7886     1.6743    39.0165 </r>
       <r>     5.8452     2.4988    39.1578 </r>
       <r>     5.9018     2.3769    39.2923 </r>
       <r>     5.9584     1.8196    39.3952 </r>
       <r>     6.0149     1.4767    39.4788 </r>
       <r>     6.0715     1.1493    39.5438 </r>
       <r>     6.1281     1.2549    39.6148 </r>
       <r>     6.1847     2.0670    39.7317 </r>
       <r>     6.2412     2.4288    39.8691 </r>
       <r>     6.2978     1.6060    39.9600 </r>
       <r>     6.3544     0.5801    39.9928 </r>
       <r>     6.4110     0.1139    39.9993 </r>
       <r>     6.4675     0.0121    40.0000 </r>
       <r>     6.5241     0.0007    40.0000 </r>
       <r>     6.5807     0.0000    40.0000 </r>
       <r>     6.6373     0.0000    40.0000 </r>
       <r>     6.6938     0.0000    40.0000 </r>
       <r>     6.7504     0.0000    40.0000 </r>
       <r>     6.8070     0.0000    40.0000 </r>
       <r>     6.8635     0.0000    40.0000 </r>
       <r>     6.9201     0.0000    40.0000 </r>
       <r>     6.9767     0.0000    40.0000 </r>
       <r>     7.0333     0.0000    40.0000 </r>
       <r>     7.0898     0.0000    40.0000 </r>
       <r>     7.1464     0.0000    40.0000 </r>
       <r>     7.2030     0.0000    40.0000 </r>
      </set>
     </set>
    </array>
   </total>
  </dos>
 </calculation>
 <structure name="finalpos" >
  <crystal>
   <varray name="basis" >
    <v>       5.76286300       0.00000000       0.00000000 </v>
    <v>       0.00000000       5.76286300       0.00000000 </v>
    <v>       0.00000000       0.00000000       5.76286300 </v>
   </varray>
   <i name="volume">    191.38808007 </i>
   <varray name="rec_basis" >
    <v>       0.17352486       0.00000000       0.00000000 </v>
    <v>       0.00000000       0.17352486       0.00000000 </v>
    <v>       0.00000000       0.00000000       0.17352486 </v>
   </varray>
  </crystal>
  <varray name="positions" >
   <v>       0.75000000       0.75000000       0.75000000 </v>
   <v>       0.50000000       0.00000000       0.00000000 </v>
   <v>       0.75000000       0.25000000       0.25000000 </v>
   <v>       0.50000000       0.50000000       0.50000000 </v>
   <v>       0.25000000       0.75000000       0.25000000 </v>
   <v>       0.00000000       0.00000000       0.50000000 </v>
   <v>       0.25000000       0.25000000       0.75000000 </v>
   <v>       0.00000000       0.50000000       0.00000000 </v>
  </varray>
  <varray name="selective"  type="logical" >
   <v type="logical" >  T  T  T </v>
   <v type="logical" >  T  T  T </v>
   <v type="logical" >  T  T  T </v>
   <v type="logical" >  T  T  T </v>
   <v type="logical" >  T  T  T </v>
   <v type="logical" >  T  T  T </v>
   <v type="logical" >  T  T  T </v>
   <v type="logical" >  T  T  T </v>
  </varray>
  <nose>
   <v>      -3.00000000       0.00000000       0.00010000       0.00010000 </v>
  </nose>
 </structure>
</modeling>
