unknown system                          
           1
     5.762863    0.000000    0.000000
     0.000000    5.762863    0.000000
     0.000000    0.000000    5.762863
   Ge
   8
Direct configuration=     1
   0.75000000  0.75000000  0.75000000
   0.50000000  0.00000000  0.00000000
   0.75000000  0.25000000  0.25000000
   0.50000000  0.50000000  0.50000000
   0.25000000  0.75000000  0.25000000
   0.00000000  0.00000000  0.50000000
   0.25000000  0.25000000  0.75000000
   0.00000000  0.50000000  0.00000000
