   8   8   0   0
  0.2392351E+02  0.5762863E-09  0.5762863E-09  0.5762863E-09  0.5000000E-15
  1.000000000000000E-004
  CAR 
 unknown system                          
      7.86352537    -10.85808761  301      0.79646709      1.00000000
    -10.858  0.0000E+00  0.0000E+00
    -10.796  0.0000E+00  0.0000E+00
    -10.733  0.0000E+00  0.0000E+00
    -10.671  0.0000E+00  0.0000E+00
    -10.608  0.0000E+00  0.0000E+00
    -10.546  0.0000E+00  0.0000E+00
    -10.484  0.0000E+00  0.0000E+00
    -10.421  0.0000E+00  0.0000E+00
    -10.359  0.0000E+00  0.0000E+00
    -10.296  0.0000E+00  0.0000E+00
    -10.234  0.0000E+00  0.0000E+00
    -10.172  0.0000E+00  0.0000E+00
    -10.109  0.0000E+00  0.0000E+00
    -10.047  0.0000E+00  0.0000E+00
     -9.984  0.9884E-15  0.6168E-16
     -9.922  0.3077E-13  0.1982E-14
     -9.860  0.8129E-12  0.5271E-13
     -9.797  0.1771E-10  0.1158E-11
     -9.735  0.3182E-09  0.2102E-10
     -9.672  0.4716E-08  0.3153E-09
     -9.610  0.5766E-07  0.3914E-08
     -9.548  0.5817E-06  0.4022E-07
     -9.485  0.4842E-05  0.3424E-06
     -9.423  0.3326E-04  0.2418E-05
     -9.360  0.1885E-03  0.1418E-04
     -9.298  0.8819E-03  0.6922E-04
     -9.236  0.3405E-02  0.2817E-03
     -9.173  0.1085E-01  0.9591E-03
     -9.111  0.2856E-01  0.2742E-02
     -9.048  0.6205E-01  0.6614E-02
     -8.986  0.1114E+00  0.1356E-01
     -8.924  0.1653E+00  0.2388E-01
     -8.861  0.2043E+00  0.3663E-01
     -8.799  0.2155E+00  0.5008E-01
     -8.736  0.2115E+00  0.6327E-01
     -8.674  0.2360E+00  0.7800E-01
     -8.611  0.3461E+00  0.9960E-01
     -8.549  0.5729E+00  0.1354E+00
     -8.487  0.8783E+00  0.1902E+00
     -8.424  0.1150E+01  0.2619E+00
     -8.362  0.1264E+01  0.3408E+00
     -8.299  0.1188E+01  0.4150E+00
     -8.237  0.1035E+01  0.4796E+00
     -8.175  0.1004E+01  0.5422E+00
     -8.112  0.1246E+01  0.6200E+00
     -8.050  0.1736E+01  0.7284E+00
     -7.987  0.2256E+01  0.8691E+00
     -7.925  0.2517E+01  0.1026E+01
     -7.863  0.2377E+01  0.1175E+01
     -7.800  0.1957E+01  0.1297E+01
     -7.738  0.1550E+01  0.1393E+01
     -7.675  0.1391E+01  0.1480E+01
     -7.613  0.1493E+01  0.1573E+01
     -7.551  0.1664E+01  0.1677E+01
     -7.488  0.1677E+01  0.1782E+01
     -7.426  0.1443E+01  0.1872E+01
     -7.363  0.1063E+01  0.1938E+01
     -7.301  0.7302E+00  0.1984E+01
     -7.239  0.5954E+00  0.2021E+01
     -7.176  0.6962E+00  0.2064E+01
     -7.114  0.9541E+00  0.2124E+01
     -7.051  0.1230E+01  0.2201E+01
     -6.989  0.1432E+01  0.2290E+01
     -6.927  0.1624E+01  0.2391E+01
     -6.864  0.2036E+01  0.2518E+01
     -6.802  0.2903E+01  0.2700E+01
     -6.739  0.4235E+01  0.2964E+01
     -6.677  0.5739E+01  0.3322E+01
     -6.615  0.6988E+01  0.3758E+01
     -6.552  0.7664E+01  0.4236E+01
     -6.490  0.7635E+01  0.4713E+01
     -6.427  0.6893E+01  0.5143E+01
     -6.365  0.5551E+01  0.5490E+01
     -6.302  0.3901E+01  0.5733E+01
     -6.240  0.2345E+01  0.5879E+01
     -6.178  0.1193E+01  0.5954E+01
     -6.115  0.5229E+00  0.5986E+01
     -6.053  0.2475E+00  0.6002E+01
     -5.990  0.2577E+00  0.6018E+01
     -5.928  0.5099E+00  0.6050E+01
     -5.866  0.9938E+00  0.6112E+01
     -5.803  0.1631E+01  0.6214E+01
     -5.741  0.2216E+01  0.6352E+01
     -5.678  0.2485E+01  0.6507E+01
     -5.616  0.2301E+01  0.6650E+01
     -5.554  0.1759E+01  0.6760E+01
     -5.491  0.1111E+01  0.6830E+01
     -5.429  0.5790E+00  0.6866E+01
     -5.366  0.2498E+00  0.6881E+01
     -5.304  0.9224E-01  0.6887E+01
     -5.242  0.4241E-01  0.6890E+01
     -5.179  0.6686E-01  0.6894E+01
     -5.117  0.1899E+00  0.6906E+01
     -5.054  0.4990E+00  0.6937E+01
     -4.992  0.1124E+01  0.7007E+01
     -4.930  0.2161E+01  0.7142E+01
     -4.867  0.3540E+01  0.7363E+01
     -4.805  0.4927E+01  0.7670E+01
     -4.742  0.5803E+01  0.8032E+01
     -4.680  0.5758E+01  0.8392E+01
     -4.618  0.4793E+01  0.8691E+01
     -4.555  0.3334E+01  0.8899E+01
     -4.493  0.1932E+01  0.9019E+01
     -4.430  0.9306E+00  0.9078E+01
     -4.368  0.3721E+00  0.9101E+01
     -4.306  0.1255E+00  0.9109E+01
     -4.243  0.4547E-01  0.9111E+01
     -4.181  0.5337E-01  0.9115E+01
     -4.118  0.1493E+00  0.9124E+01
     -4.056  0.4005E+00  0.9149E+01
     -3.993  0.9152E+00  0.9206E+01
     -3.931  0.1785E+01  0.9318E+01
     -3.869  0.3004E+01  0.9505E+01
     -3.806  0.4411E+01  0.9780E+01
     -3.744  0.5686E+01  0.1014E+02
     -3.681  0.6429E+01  0.1054E+02
     -3.619  0.6330E+01  0.1093E+02
     -3.557  0.5368E+01  0.1127E+02
     -3.494  0.3875E+01  0.1151E+02
     -3.432  0.2359E+01  0.1166E+02
     -3.369  0.1202E+01  0.1173E+02
     -3.307  0.5102E+00  0.1176E+02
     -3.245  0.1805E+00  0.1177E+02
     -3.182  0.5694E-01  0.1178E+02
     -3.120  0.3379E-01  0.1178E+02
     -3.057  0.8415E-01  0.1178E+02
     -2.995  0.2607E+00  0.1180E+02
     -2.933  0.6851E+00  0.1184E+02
     -2.870  0.1489E+01  0.1194E+02
     -2.808  0.2674E+01  0.1210E+02
     -2.745  0.3973E+01  0.1235E+02
     -2.683  0.4900E+01  0.1266E+02
     -2.621  0.5064E+01  0.1297E+02
     -2.558  0.4488E+01  0.1325E+02
     -2.496  0.3591E+01  0.1348E+02
     -2.433  0.2827E+01  0.1365E+02
     -2.371  0.2360E+01  0.1380E+02
     -2.309  0.2079E+01  0.1393E+02
     -2.246  0.1848E+01  0.1405E+02
     -2.184  0.1653E+01  0.1415E+02
     -2.121  0.1539E+01  0.1425E+02
     -2.059  0.1476E+01  0.1434E+02
     -1.997  0.1361E+01  0.1442E+02
     -1.934  0.1121E+01  0.1449E+02
     -1.872  0.7927E+00  0.1454E+02
     -1.809  0.4856E+00  0.1457E+02
     -1.747  0.3032E+00  0.1459E+02
     -1.684  0.3125E+00  0.1461E+02
     -1.622  0.5564E+00  0.1465E+02
     -1.560  0.1042E+01  0.1471E+02
     -1.497  0.1680E+01  0.1481E+02
     -1.435  0.2248E+01  0.1496E+02
     -1.372  0.2487E+01  0.1511E+02
     -1.310  0.2272E+01  0.1525E+02
     -1.248  0.1714E+01  0.1536E+02
     -1.185  0.1071E+01  0.1543E+02
     -1.123  0.5671E+00  0.1546E+02
     -1.060  0.3050E+00  0.1548E+02
     -0.998  0.3183E+00  0.1550E+02
     -0.936  0.6805E+00  0.1554E+02
     -0.873  0.1557E+01  0.1564E+02
     -0.811  0.3133E+01  0.1584E+02
     -0.748  0.5425E+01  0.1617E+02
     -0.686  0.8076E+01  0.1668E+02
     -0.624  0.1033E+02  0.1732E+02
     -0.561  0.1133E+02  0.1803E+02
     -0.499  0.1060E+02  0.1869E+02
     -0.436  0.8440E+01  0.1922E+02
     -0.374  0.5685E+01  0.1957E+02
     -0.312  0.3229E+01  0.1977E+02
     -0.249  0.1543E+01  0.1987E+02
     -0.187  0.6321E+00  0.1991E+02
     -0.124  0.2740E+00  0.1993E+02
     -0.062  0.2841E+00  0.1994E+02
      0.000  0.6355E+00  0.1998E+02
      0.063  0.1423E+01  0.2007E+02
      0.125  0.2699E+01  0.2024E+02
      0.188  0.4267E+01  0.2051E+02
      0.250  0.5616E+01  0.2086E+02
      0.312  0.6166E+01  0.2124E+02
      0.375  0.5705E+01  0.2160E+02
      0.437  0.4631E+01  0.2189E+02
      0.500  0.3729E+01  0.2212E+02
      0.562  0.3689E+01  0.2235E+02
      0.625  0.4712E+01  0.2265E+02
      0.687  0.6449E+01  0.2305E+02
      0.749  0.8222E+01  0.2356E+02
      0.812  0.9392E+01  0.2415E+02
      0.874  0.9657E+01  0.2475E+02
      0.937  0.9106E+01  0.2532E+02
      0.999  0.8032E+01  0.2582E+02
      1.061  0.6707E+01  0.2624E+02
      1.124  0.5335E+01  0.2657E+02
      1.186  0.4162E+01  0.2683E+02
      1.249  0.3513E+01  0.2705E+02
      1.311  0.3598E+01  0.2727E+02
      1.373  0.4251E+01  0.2754E+02
      1.436  0.4920E+01  0.2785E+02
      1.498  0.5004E+01  0.2816E+02
      1.561  0.4287E+01  0.2843E+02
      1.623  0.3052E+01  0.2862E+02
      1.685  0.1801E+01  0.2873E+02
      1.748  0.8960E+00  0.2879E+02
      1.810  0.4308E+00  0.2881E+02
      1.873  0.3485E+00  0.2883E+02
      1.935  0.5910E+00  0.2887E+02
      1.997  0.1134E+01  0.2894E+02
      2.060  0.1925E+01  0.2906E+02
      2.122  0.2826E+01  0.2924E+02
      2.185  0.3654E+01  0.2947E+02
      2.247  0.4254E+01  0.2973E+02
      2.309  0.4512E+01  0.3001E+02
      2.372  0.4336E+01  0.3028E+02
      2.434  0.3705E+01  0.3051E+02
      2.497  0.2763E+01  0.3069E+02
      2.559  0.1803E+01  0.3080E+02
      2.621  0.1129E+01  0.3087E+02
      2.684  0.9129E+00  0.3093E+02
      2.746  0.1155E+01  0.3100E+02
      2.809  0.1692E+01  0.3110E+02
      2.871  0.2238E+01  0.3124E+02
      2.934  0.2488E+01  0.3140E+02
      2.996  0.2292E+01  0.3154E+02
      3.058  0.1745E+01  0.3165E+02
      3.121  0.1101E+01  0.3172E+02
      3.183  0.5927E+00  0.3176E+02
      3.246  0.3276E+00  0.3178E+02
      3.308  0.3261E+00  0.3180E+02
      3.370  0.5908E+00  0.3183E+02
      3.433  0.1110E+01  0.3190E+02
      3.495  0.1784E+01  0.3202E+02
      3.558  0.2388E+01  0.3216E+02
      3.620  0.2653E+01  0.3233E+02
      3.682  0.2447E+01  0.3248E+02
      3.745  0.1881E+01  0.3260E+02
      3.807  0.1219E+01  0.3268E+02
      3.870  0.7119E+00  0.3272E+02
      3.932  0.4902E+00  0.3275E+02
      3.994  0.5785E+00  0.3279E+02
      4.057  0.9398E+00  0.3285E+02
      4.119  0.1491E+01  0.3294E+02
      4.182  0.2116E+01  0.3307E+02
      4.244  0.2709E+01  0.3324E+02
      4.306  0.3207E+01  0.3344E+02
      4.369  0.3561E+01  0.3366E+02
      4.431  0.3714E+01  0.3389E+02
      4.494  0.3640E+01  0.3412E+02
      4.556  0.3444E+01  0.3434E+02
      4.618  0.3383E+01  0.3455E+02
      4.681  0.3742E+01  0.3478E+02
      4.743  0.4598E+01  0.3507E+02
      4.806  0.5645E+01  0.3542E+02
      4.868  0.6282E+01  0.3581E+02
      4.930  0.6017E+01  0.3619E+02
      4.993  0.4851E+01  0.3649E+02
      5.055  0.3261E+01  0.3669E+02
      5.118  0.1822E+01  0.3681E+02
      5.180  0.8464E+00  0.3686E+02
      5.242  0.3376E+00  0.3688E+02
      5.305  0.1585E+00  0.3689E+02
      5.367  0.2095E+00  0.3690E+02
      5.430  0.5037E+00  0.3694E+02
      5.492  0.1138E+01  0.3701E+02
      5.555  0.2194E+01  0.3714E+02
      5.617  0.3617E+01  0.3737E+02
      5.679  0.5164E+01  0.3769E+02
      5.742  0.6476E+01  0.3810E+02
      5.804  0.7194E+01  0.3854E+02
      5.867  0.7077E+01  0.3899E+02
      5.929  0.6110E+01  0.3937E+02
      5.991  0.4566E+01  0.3965E+02
      6.054  0.2913E+01  0.3983E+02
      6.116  0.1568E+01  0.3993E+02
      6.179  0.7069E+00  0.3998E+02
      6.241  0.2653E+00  0.3999E+02
      6.303  0.8261E-01  0.4000E+02
      6.366  0.2130E-01  0.4000E+02
      6.428  0.4541E-02  0.4000E+02
      6.491  0.7998E-03  0.4000E+02
      6.553  0.1163E-03  0.4000E+02
      6.615  0.1397E-04  0.4000E+02
      6.678  0.1384E-05  0.4000E+02
      6.740  0.1132E-06  0.4000E+02
      6.803  0.7636E-08  0.4000E+02
      6.865  0.4249E-09  0.4000E+02
      6.927  0.1950E-10  0.4000E+02
      6.990  0.7369E-12  0.4000E+02
      7.052  0.2530E-13  0.4000E+02
      7.115  0.0000E+00  0.4000E+02
      7.177  0.0000E+00  0.4000E+02
      7.239  0.0000E+00  0.4000E+02
      7.302  0.0000E+00  0.4000E+02
      7.364  0.0000E+00  0.4000E+02
      7.427  0.0000E+00  0.4000E+02
      7.489  0.0000E+00  0.4000E+02
      7.551  0.0000E+00  0.4000E+02
      7.614  0.0000E+00  0.4000E+02
      7.676  0.0000E+00  0.4000E+02
      7.739  0.0000E+00  0.4000E+02
      7.801  0.0000E+00  0.4000E+02
      7.864  0.0000E+00  0.4000E+02
