    8    8    1    1
  0.2392351E+02  0.5762863E-09  0.5762863E-09  0.5762863E-09  0.5000000E-15
  1.000000000000000E-004
  CAR 
 unknown system                          
   24    4   20
 
  0.3742002E-15  0.3742002E-15  0.3742002E-15  0.3703704E-01
   1       -8.858088
   2       -4.843453
   3       -4.843453
   4       -4.843453
   5       -4.843453
   6       -4.843453
   7       -4.843453
   8        0.228838
   9        0.228838
  10        0.228838
  11        0.228838
  12        0.228838
  13        0.228838
  14        3.597320
  15        3.597320
  16        3.597320
  17        3.597320
  18        3.597320
  19        3.597327
  20        3.675838
 
  0.3333333E+00  0.3742002E-15  0.3742002E-15  0.2222222E+00
   1       -8.396473
   2       -7.030676
   3       -4.725502
   4       -4.725502
   5       -4.725502
   6       -4.725502
   7       -2.041348
   8       -0.600074
   9       -0.600074
  10       -0.600074
  11       -0.600074
  12        0.729742
  13        0.729742
  14        1.029786
  15        2.153116
  16        2.153116
  17        3.576338
  18        4.569997
  19        4.812329
  20        5.702584
 
  0.3333333E+00  0.3333333E+00  0.3742002E-15  0.4444444E+00
   1       -7.949749
   2       -6.655113
   3       -6.655113
   4       -5.703472
   5       -3.806916
   6       -2.679894
   7       -2.679894
   8       -1.401954
   9       -0.700032
  10       -0.527752
  11       -0.527752
  12        0.716475
  13        0.863360
  14        0.863360
  15        1.068739
  16        2.906932
  17        4.403953
  18        5.681765
  19        5.863511
  20        5.863525
 
  0.3333333E+00  0.3333333E+00  0.3333333E+00  0.2962963E+00
   1       -7.535959
   2       -6.452822
   3       -6.452822
   4       -6.452822
   5       -3.643988
   6       -3.643988
   7       -3.643988
   8       -2.353167
   9        0.291707
  10        0.291707
  11        0.291707
  12        1.450614
  13        1.450614
  14        1.450614
  15        2.359512
  16        2.359512
  17        4.192909
  18        4.873153
  19        4.873153
  20        4.873153
