       N       E                     dE             d eps       ncg     rms          rms(c)
DAV:   1     0.114460954416E+02    0.11446E+02   -0.41844E+03   160   0.316E+02
DAV:   2    -0.204271353248E+02   -0.31873E+02   -0.31754E+02   260   0.594E+01
DAV:   3    -0.207834803345E+02   -0.35635E+00   -0.35587E+00   160   0.867E+00
DAV:   4    -0.207842378497E+02   -0.75752E-03   -0.75745E-03   300   0.361E-01
DAV:   5    -0.207842378850E+02   -0.35316E-07   -0.35361E-07   160   0.239E-03    0.279E+00
RMM:   6    -0.206973860937E+02    0.86852E-01   -0.76403E-03   160   0.644E-01    0.173E+00
RMM:   7    -0.206497819819E+02    0.47604E-01   -0.21585E-02   160   0.105E+00    0.844E-02
RMM:   8    -0.206500437077E+02   -0.26173E-03   -0.38308E-04   122   0.914E-02    0.194E-02
RMM:   9    -0.206500783365E+02   -0.34629E-04   -0.76440E-05    99   0.453E-02
   1 F= -.20650078E+02 E0= -.20554198E+02  d E =-.191760E+00
