<?xml version="1.0" encoding="ISO-8859-1"?>
<modeling>
 <generator>
  <i name="program" type="string">vasp </i>
  <i name="version" type="string">5.3.3  </i>
  <i name="subversion" type="string">18Dez12 (build Dec 13 2014 13:36:02) complex                          parallel </i>
  <i name="platform" type="string">LinuxIFC </i>
  <i name="date" type="string">2018 11 27 </i>
  <i name="time" type="string">23:29:31 </i>
 </generator>
 <incar>
  <i type="string" name="PREC">normal</i>
  <i type="string" name="ALGO"> Fast</i>
  <i type="int" name="ISPIN">     1</i>
  <i type="int" name="IBRION">    -1</i>
  <i type="int" name="NSW">     0</i>
  <i type="int" name="ISYM">     1</i>
  <i type="int" name="ISMEAR">     0</i>
  <i name="SIGMA">      0.20000000</i>
  <i type="logical" name="LWAVE"> F  </i>
  <i type="logical" name="LCHARG"> F  </i>
 </incar>
 <kpoints>
  <generation param="Monkhorst-Pack">
   <v type="int" name="divisions">       3        3        3 </v>
   <v name="usershift">      0.00000000       0.00000000       0.00000000 </v>
   <v name="genvec1">      0.33333333       0.00000000       0.00000000 </v>
   <v name="genvec2">      0.00000000       0.33333333       0.00000000 </v>
   <v name="genvec3">      0.00000000       0.00000000       0.33333333 </v>
   <v name="shift">      0.00000000       0.00000000       0.00000000 </v>
  </generation>
  <varray name="kpointlist" >
   <v>       0.00000000       0.00000000       0.00000000 </v>
   <v>       0.33333333       0.00000000       0.00000000 </v>
   <v>       0.33333333       0.33333333       0.00000000 </v>
   <v>       0.33333333       0.33333333       0.33333333 </v>
  </varray>
  <varray name="weights" >
   <v>       0.03703704 </v>
   <v>       0.22222222 </v>
   <v>       0.44444444 </v>
   <v>       0.29629630 </v>
  </varray>
 </kpoints>
 <parameters>
  <separator name="general" >
   <i type="string" name="SYSTEM">unknown system</i>
   <i type="logical" name="LCOMPAT"> F  </i>
  </separator>
  <separator name="electronic" >
   <i type="string" name="PREC">normal</i>
   <i name="ENMAX">    134.67800000</i>
   <i name="ENAUG">    320.26400000</i>
   <i name="EDIFF">      0.00010000</i>
   <i type="int" name="IALGO">    68</i>
   <i type="int" name="IWAVPR">    10</i>
   <i type="int" name="NBANDS">    20</i>
   <i name="NELECT">     24.00000000</i>
   <i type="int" name="TURBO">     0</i>
   <i type="int" name="IRESTART">     0</i>
   <i type="int" name="NREBOOT">     0</i>
   <i type="int" name="NMIN">     0</i>
   <i name="EREF">      0.00000000</i>
   <separator name="electronic smearing" >
    <i type="int" name="ISMEAR">     0</i>
    <i name="SIGMA">      0.20000000</i>
    <i name="KSPACING">      0.50000000</i>
    <i type="logical" name="KGAMMA"> T  </i>
   </separator>
   <separator name="electronic projectors" >
    <i type="logical" name="LREAL"> F  </i>
    <v name="ROPT">      0.00000000</v>
    <i type="int" name="LMAXPAW">  -100</i>
    <i type="int" name="LMAXMIX">     2</i>
    <i type="logical" name="NLSPLINE"> F  </i>
   </separator>
   <separator name="electronic startup" >
    <i type="int" name="ISTART">     0</i>
    <i type="int" name="ICHARG">     2</i>
    <i type="int" name="INIWAV">     1</i>
   </separator>
   <separator name="electronic spin" >
    <i type="int" name="ISPIN">     1</i>
    <i type="logical" name="LNONCOLLINEAR"> F  </i>
    <v name="MAGMOM">      1.00000000      1.00000000      1.00000000      1.00000000      1.00000000      1.00000000      1.00000000      1.00000000</v>
    <i name="NUPDOWN">     -1.00000000</i>
    <i type="logical" name="LSORBIT"> F  </i>
    <v name="SAXIS">      0.00000000      0.00000000      1.00000000</v>
    <i type="logical" name="LSPIRAL"> F  </i>
    <v name="QSPIRAL">      0.00000000      0.00000000      0.00000000</v>
    <i type="logical" name="LZEROZ"> F  </i>
   </separator>
   <separator name="electronic exchange-correlation" >
    <i type="logical" name="LASPH"> F  </i>
    <i type="logical" name="LMETAGGA"> F  </i>
   </separator>
   <separator name="electronic convergence" >
    <i type="int" name="NELM">    60</i>
    <i type="int" name="NELMDL">    -5</i>
    <i type="int" name="NELMIN">     2</i>
    <i name="ENINI">    134.67800000</i>
    <separator name="electronic convergence detail" >
     <i type="logical" name="LDIAG"> T  </i>
     <i type="logical" name="LSUBROT"> T  </i>
     <i name="WEIMIN">      0.00000000</i>
     <i name="EBREAK">      0.00000125</i>
     <i name="DEPER">      0.30000000</i>
     <i type="int" name="NRMM">     4</i>
     <i name="TIME">      0.40000000</i>
    </separator>
   </separator>
   <separator name="electronic mixer" >
    <i name="AMIX">      0.40000000</i>
    <i name="BMIX">      1.00000000</i>
    <i name="AMIN">      0.10000000</i>
    <i name="AMIX_MAG">      1.60000000</i>
    <i name="BMIX_MAG">      1.00000000</i>
    <separator name="electronic mixer details" >
     <i type="int" name="IMIX">     4</i>
     <i type="int" name="MAXMIX">   -45</i>
     <i name="WC">    100.00000000</i>
     <i type="int" name="INIMIX">     1</i>
     <i type="int" name="MIXPRE">     1</i>
     <i type="int" name="MREMOVE">     5</i>
    </separator>
   </separator>
   <separator name="electronic dipolcorrection" >
    <i type="logical" name="LDIPOL"> F  </i>
    <i type="logical" name="LMONO"> F  </i>
    <i type="int" name="IDIPOL">     0</i>
    <i name="EPSILON">      1.00000000</i>
    <v name="DIPOL">   -100.00000000   -100.00000000   -100.00000000</v>
    <i name="EFIELD">      0.00000000</i>
   </separator>
  </separator>
  <separator name="grids" >
   <i type="int" name="NGX">    16</i>
   <i type="int" name="NGY">    16</i>
   <i type="int" name="NGZ">    16</i>
   <i type="int" name="NGXF">    32</i>
   <i type="int" name="NGYF">    32</i>
   <i type="int" name="NGZF">    32</i>
   <i type="logical" name="ADDGRID"> F  </i>
  </separator>
  <separator name="ionic" >
   <i type="int" name="NSW">     0</i>
   <i type="int" name="IBRION">    -1</i>
   <i type="int" name="ISIF">     2</i>
   <i name="PSTRESS">      0.00000000</i>
   <i name="EDIFFG">      0.00100000</i>
   <i type="int" name="NFREE">     0</i>
   <i name="POTIM">      0.50000000</i>
   <i name="SMASS">     -3.00000000</i>
   <i name="SCALEE">      1.00000000</i>
  </separator>
  <separator name="ionic md" >
   <i name="TEBEG">      0.00010000</i>
   <i name="TEEND">      0.00010000</i>
   <i type="int" name="NBLOCK">     1</i>
   <i type="int" name="KBLOCK">     1</i>
   <i type="int" name="NPACO">   256</i>
   <i name="APACO">     16.00000000</i>
  </separator>
  <separator name="symmetry" >
   <i type="int" name="ISYM">     1</i>
   <i name="SYMPREC">      0.00001000</i>
  </separator>
  <separator name="dos" >
   <i type="logical" name="LORBIT"> F  </i>
   <v name="RWIGS">     -1.00000000</v>
   <i type="int" name="NEDOS">   301</i>
   <i name="EMIN">     10.00000000</i>
   <i name="EMAX">    -10.00000000</i>
   <i name="EFERMI">      0.00000000</i>
  </separator>
  <separator name="writing" >
   <i type="int" name="NWRITE">     2</i>
   <i type="logical" name="LWAVE"> F  </i>
   <i type="logical" name="LCHARG"> F  </i>
   <i type="logical" name="LPARD"> F  </i>
   <i type="logical" name="LVTOT"> F  </i>
   <i type="logical" name="LVHAR"> F  </i>
   <i type="logical" name="LELF"> F  </i>
   <i type="logical" name="LOPTICS"> F  </i>
   <v name="STM">      0.00000000      0.00000000      0.00000000      0.00000000      0.00000000      0.00000000      0.00000000</v>
  </separator>
  <separator name="performance" >
   <i type="int" name="NPAR">    20</i>
   <i type="int" name="NSIM">     4</i>
   <i type="int" name="NBLK">    -1</i>
   <i type="logical" name="LPLANE"> T  </i>
   <i type="logical" name="LSCALAPACK"> T  </i>
   <i type="logical" name="LSCAAWARE"> F  </i>
   <i type="logical" name="LSCALU"> F  </i>
   <i type="logical" name="LASYNC"> F  </i>
   <i type="logical" name="LORBITALREAL"> F  </i>
  </separator>
  <separator name="miscellaneous" >
   <i type="int" name="IDIOT">     3</i>
   <i type="logical" name="LMUSIC"> F  </i>
   <v name="POMASS">     69.72300000</v>
   <v name="DARWINR">      0.00000000</v>
   <v name="DARWINV">      1.00000000</v>
   <i type="logical" name="LCORR"> T  </i>
  </separator>
  <i type="logical" name="GGA_COMPAT"> T  </i>
  <i type="logical" name="LBERRY"> F  </i>
  <i type="int" name="ICORELEVEL">     0</i>
  <i type="logical" name="LDAU"> F  </i>
  <i type="int" name="I_CONSTRAINED_M">     0</i>
  <separator name="electronic exchange-correlation" >
   <i type="string" name="GGA">--</i>
   <i type="int" name="VOSKOWN">     0</i>
   <i type="logical" name="LHFCALC"> F  </i>
   <i type="string" name="PRECFOCK"></i>
   <i type="logical" name="LSYMGRAD"> F  </i>
   <i type="logical" name="LHFONE"> F  </i>
   <i type="logical" name="LRHFCALC"> F  </i>
   <i type="logical" name="LTHOMAS"> F  </i>
   <i type="logical" name="LMODELHF"> F  </i>
   <i name="ENCUT4O">     -1.00000000</i>
   <i type="int" name="EXXOEP">     0</i>
   <i type="int" name="FOURORBIT">     0</i>
   <i name="AEXX">      0.00000000</i>
   <i name="HFALPHA">      0.00000000</i>
   <i name="MCALPHA">      0.00000000</i>
   <i name="ALDAX">      1.00000000</i>
   <i name="AGGAX">      1.00000000</i>
   <i name="ALDAC">      1.00000000</i>
   <i name="AGGAC">      1.00000000</i>
   <i type="int" name="NKREDX">     1</i>
   <i type="int" name="NKREDY">     1</i>
   <i type="int" name="NKREDZ">     1</i>
   <i type="logical" name="SHIFTRED"> F  </i>
   <i type="logical" name="ODDONLY"> F  </i>
   <i type="logical" name="EVENONLY"> F  </i>
   <i type="int" name="LMAXFOCK">     0</i>
   <i type="int" name="NMAXFOCKAE">     0</i>
   <i type="logical" name="LFOCKAEDFT"> F  </i>
   <i name="HFSCREEN">      0.00000000</i>
   <i name="HFSCREENC">      0.00000000</i>
   <i type="int" name="NBANDSGWLOW">     0</i>
  </separator>
  <separator name="vdW DFT" >
   <i type="logical" name="LUSE_VDW"> F  </i>
   <i name="Zab_VDW">     -0.84910000</i>
   <i name="PARAM1">      0.12340000</i>
   <i name="PARAM2">      1.00000000</i>
   <i name="PARAM3">      0.00000000</i>
  </separator>
  <separator name="model GW" >
   <i type="int" name="MODEL_GW">     0</i>
   <i name="MODEL_EPS0">     14.35410601</i>
   <i name="MODEL_ALPHA">      1.00000000</i>
  </separator>
  <separator name="linear response parameters" >
   <i type="logical" name="LEPSILON"> F  </i>
   <i type="logical" name="LRPA"> F  </i>
   <i type="logical" name="LNABLA"> F  </i>
   <i type="logical" name="LVEL"> F  </i>
   <i type="int" name="KINTER">     0</i>
   <i name="CSHIFT">      0.10000000</i>
   <i name="OMEGAMAX">     -1.00000000</i>
   <i name="DEG_THRESHOLD">      0.00200000</i>
  </separator>
  <separator name="orbital magnetization" >
   <i type="logical" name="NUCIND"> F  </i>
   <v name="MAGPOS">      0.00000000      0.00000000      0.00000000</v>
   <i type="logical" name="LNICSALL"> T  </i>
   <i type="logical" name="ORBITALMAG"> F  </i>
   <i type="logical" name="LMAGBLOCH"> F  </i>
   <i type="logical" name="LCHIMAG"> F  </i>
   <i type="logical" name="LGAUGE"> T  </i>
   <i type="int" name="MAGATOM">     0</i>
   <v name="MAGDIPOL">      0.00000000      0.00000000      0.00000000</v>
   <v name="AVECCONST">      0.00000000      0.00000000      0.00000000</v>
  </separator>
  <separator name="response functions" >
   <i type="logical" name="LADDER"> F  </i>
   <i type="logical" name="LFXC"> F  </i>
   <i type="logical" name="LHARTREE"> T  </i>
   <i type="int" name="IBSE">     0</i>
   <i type="logical" name="LTCTE"> F  </i>
   <i type="logical" name="LTETE"> F  </i>
   <i type="logical" name="LTRIPLET"> F  </i>
   <i type="logical" name="LFXCEPS"> F  </i>
   <i type="logical" name="L2ORDER"> F  </i>
   <i type="logical" name="LUSEW"> F  </i>
   <i name="ENCUTGW">     -2.00000000</i>
   <i name="ENCUTGWSOFT">     -2.00000000</i>
   <i name="ENCUTLF">     -1.00000000</i>
   <i type="int" name="LMAXMP2">    -1</i>
   <i name="SCISSOR">      0.00000000</i>
   <i type="int" name="NOMEGA">     0</i>
   <i type="int" name="NOMEGAR">     0</i>
   <i type="int" name="NBANDSGW">    -1</i>
   <i type="int" name="NBANDSO">    -1</i>
   <i type="int" name="NBANDSV">    -1</i>
   <i type="int" name="NELM">     1</i>
   <i type="int" name="DIM">     3</i>
   <i type="int" name="ANTIRES">     0</i>
   <i name="OMEGAMAX">    -30.00000000</i>
   <i name="OMEGATL">   -200.00000000</i>
   <i type="int" name="OMEGAGRID">     0</i>
   <i name="CSHIFT">     -0.10000000</i>
   <i type="logical" name="SELFENERGY"> F  </i>
   <i type="logical" name="LSPECTRAL"> F  </i>
   <i type="logical" name="ODDONLYGW"> F  </i>
   <i type="logical" name="EVENONLYGW"> F  </i>
   <i type="int" name="NKREDLFX">     1</i>
   <i type="int" name="NKREDLFY">     1</i>
   <i type="int" name="NKREDLFZ">     1</i>
   <i type="int" name="MAXMEM">  1800</i>
   <i type="int" name="TELESCOPE">     0</i>
  </separator>
 </parameters>
 <atominfo>
  <atoms>       8 </atoms>
  <types>       1 </types>
  <array name="atoms" >
   <dimension dim="1">ion</dimension>
   <field type="string">element</field>
   <field type="int">atomtype</field>
   <set>
    <rc><c>Ga</c><c>   1</c></rc>
    <rc><c>Ga</c><c>   1</c></rc>
    <rc><c>Ga</c><c>   1</c></rc>
    <rc><c>Ga</c><c>   1</c></rc>
    <rc><c>Ga</c><c>   1</c></rc>
    <rc><c>Ga</c><c>   1</c></rc>
    <rc><c>Ga</c><c>   1</c></rc>
    <rc><c>Ga</c><c>   1</c></rc>
   </set>
  </array>
  <array name="atomtypes" >
   <dimension dim="1">type</dimension>
   <field type="int">atomspertype</field>
   <field type="string">element</field>
   <field>mass</field>
   <field>valence</field>
   <field type="string">pseudopotential</field>
   <set>
    <rc><c>   8</c><c>Ga</c><c>     69.72300000</c><c>      3.00000000</c><c> PAW_PBE Ga 08Apr2002                   </c></rc>
   </set>
  </array>
 </atominfo>
 <structure name="initialpos" >
  <crystal>
   <varray name="basis" >
    <v>       5.76286300       0.00000000       0.00000000 </v>
    <v>       0.00000000       5.76286300       0.00000000 </v>
    <v>       0.00000000       0.00000000       5.76286300 </v>
   </varray>
   <i name="volume">    191.38808007 </i>
   <varray name="rec_basis" >
    <v>       0.17352486       0.00000000       0.00000000 </v>
    <v>       0.00000000       0.17352486       0.00000000 </v>
    <v>       0.00000000       0.00000000       0.17352486 </v>
   </varray>
  </crystal>
  <varray name="positions" >
   <v>       0.75000000       0.75000000       0.75000000 </v>
   <v>       0.50000000       0.00000000       0.00000000 </v>
   <v>       0.75000000       0.25000000       0.25000000 </v>
   <v>       0.50000000       0.50000000       0.50000000 </v>
   <v>       0.25000000       0.75000000       0.25000000 </v>
   <v>       0.00000000       0.00000000       0.50000000 </v>
   <v>       0.25000000       0.25000000       0.75000000 </v>
   <v>       0.00000000       0.50000000       0.00000000 </v>
  </varray>
 </structure>
 <calculation>
  <scstep>
   <time name="dav">    0.02    0.03</time>
   <time name="total">    0.05    0.06</time>
   <energy>
    <i name="alphaZ">     59.64982895 </i>
    <i name="ewald">   -484.56382983 </i>
    <i name="hartreedc">    -22.55400900 </i>
    <i name="XCdc">   -155.28694958 </i>
    <i name="pawpsdc">    330.10196642 </i>
    <i name="pawaedc">   -140.54714835 </i>
    <i name="eentropy">     -0.08067256 </i>
    <i name="bandstr">    -46.20430014 </i>
    <i name="atom">    470.93120954 </i>
    <i name="e_fr_energy">     11.44609544 </i>
    <i name="e_wo_entrp">     11.52676800 </i>
    <i name="e_0_energy">     11.48643172 </i>
   </energy>
  </scstep>
  <scstep>
   <time name="dav">    0.04    0.04</time>
   <time name="total">    0.04    0.04</time>
   <energy>
    <i name="e_fr_energy">    -20.42713532 </i>
    <i name="e_wo_entrp">    -20.24015989 </i>
    <i name="e_0_energy">    -20.33364761 </i>
   </energy>
  </scstep>
  <scstep>
   <time name="dav">    0.02    0.02</time>
   <time name="total">    0.02    0.02</time>
   <energy>
    <i name="e_fr_energy">    -20.78348033 </i>
    <i name="e_wo_entrp">    -20.59210866 </i>
    <i name="e_0_energy">    -20.68779450 </i>
   </energy>
  </scstep>
  <scstep>
   <time name="dav">    0.04    0.04</time>
   <time name="total">    0.04    0.05</time>
   <energy>
    <i name="e_fr_energy">    -20.78423785 </i>
    <i name="e_wo_entrp">    -20.59279311 </i>
    <i name="e_0_energy">    -20.68851548 </i>
   </energy>
  </scstep>
  <scstep>
   <time name="dav">    0.02    0.02</time>
   <time name="total">    0.03    0.04</time>
   <energy>
    <i name="e_fr_energy">    -20.78423788 </i>
    <i name="e_wo_entrp">    -20.59279315 </i>
    <i name="e_0_energy">    -20.68851552 </i>
   </energy>
  </scstep>
  <scstep>
   <time name="diag">    0.02    0.05</time>
   <time name="diis">    0.00    0.00</time>
   <time name="orth">    0.00    0.00</time>
   <time name="total">    0.04    0.07</time>
   <energy>
    <i name="e_fr_energy">    -20.69738609 </i>
    <i name="e_wo_entrp">    -20.50591257 </i>
    <i name="e_0_energy">    -20.60164933 </i>
   </energy>
  </scstep>
  <scstep>
   <time name="diag">    0.00    0.01</time>
   <time name="diis">    0.01    0.01</time>
   <time name="orth">    0.00    0.00</time>
   <time name="total">    0.02    0.03</time>
   <energy>
    <i name="e_fr_energy">    -20.64978198 </i>
    <i name="e_wo_entrp">    -20.45803033 </i>
    <i name="e_0_energy">    -20.55390616 </i>
   </energy>
  </scstep>
  <scstep>
   <time name="diag">    0.00    0.01</time>
   <time name="diis">    0.00    0.01</time>
   <time name="orth">    0.00    0.00</time>
   <time name="total">    0.03    0.03</time>
   <energy>
    <i name="e_fr_energy">    -20.65004371 </i>
    <i name="e_wo_entrp">    -20.45826908 </i>
    <i name="e_0_energy">    -20.55415639 </i>
   </energy>
  </scstep>
  <scstep>
   <time name="diag">    0.01    0.01</time>
   <time name="diis">    0.01    0.01</time>
   <time name="orth">    0.00    0.00</time>
   <time name="total">    0.02    0.02</time>
   <energy>
    <i name="alphaZ">     59.64982895 </i>
    <i name="ewald">   -484.56382983 </i>
    <i name="hartreedc">    -24.16635766 </i>
    <i name="XCdc">   -153.71192547 </i>
    <i name="pawpsdc">    423.24430603 </i>
    <i name="pawaedc">   -235.12255355 </i>
    <i name="eentropy">     -0.19176031 </i>
    <i name="bandstr">    -76.71899604 </i>
    <i name="atom">    470.93120954 </i>
    <i name="e_fr_energy">    -20.65007834 </i>
    <i name="e_wo_entrp">    -20.45831803 </i>
    <i name="e_0_energy">    -20.55419818 </i>
   </energy>
  </scstep>
  <structure>
   <crystal>
    <varray name="basis" >
     <v>       5.76286300       0.00000000       0.00000000 </v>
     <v>       0.00000000       5.76286300       0.00000000 </v>
     <v>       0.00000000       0.00000000       5.76286300 </v>
    </varray>
    <i name="volume">    191.38808007 </i>
    <varray name="rec_basis" >
     <v>       0.17352486       0.00000000       0.00000000 </v>
     <v>       0.00000000       0.17352486       0.00000000 </v>
     <v>       0.00000000       0.00000000       0.17352486 </v>
    </varray>
   </crystal>
   <varray name="positions" >
    <v>       0.75000000       0.75000000       0.75000000 </v>
    <v>       0.50000000       0.00000000       0.00000000 </v>
    <v>       0.75000000       0.25000000       0.25000000 </v>
    <v>       0.50000000       0.50000000       0.50000000 </v>
    <v>       0.25000000       0.75000000       0.25000000 </v>
    <v>       0.00000000       0.00000000       0.50000000 </v>
    <v>       0.25000000       0.25000000       0.75000000 </v>
    <v>       0.00000000       0.50000000       0.00000000 </v>
   </varray>
  </structure>
  <varray name="forces" >
   <v>       0.00000000      -0.00000000      -0.00000000 </v>
   <v>      -0.00000000       0.00000000       0.00000000 </v>
   <v>      -0.00000000      -0.00000000      -0.00000000 </v>
   <v>       0.00000000      -0.00000000       0.00000000 </v>
   <v>       0.00000000      -0.00000000      -0.00000000 </v>
   <v>      -0.00000000       0.00000000       0.00000000 </v>
   <v>      -0.00000000      -0.00000000      -0.00000000 </v>
   <v>      -0.00000000      -0.00000000       0.00000000 </v>
  </varray>
  <varray name="stress" >
   <v>      28.44591356      -0.00000000      -0.00000000 </v>
   <v>      -0.00000000      28.44591356      -0.00000000 </v>
   <v>       0.00000000       0.00000000      28.44591356 </v>
  </varray>
  <energy>
   <i name="e_fr_energy">    -20.65007834 </i>
   <i name="e_wo_entrp">    -20.55419818 </i>
   <i name="e_0_energy">     -0.19176031 </i>
  </energy>
  <time name="totalsc">    0.35    0.41</time>
  <eigenvalues>
   <array>
    <dimension dim="1">band</dimension>
    <dimension dim="2">kpoint</dimension>
    <dimension dim="3">spin</dimension>
    <field>eigene</field>
    <field>occ</field>
    <set>
     <set comment="spin 1">
      <set comment="kpoint 1">
       <r>   -8.8581    1.0000 </r>
       <r>   -4.8435    1.0000 </r>
       <r>   -4.8435    1.0000 </r>
       <r>   -4.8435    1.0000 </r>
       <r>   -4.8435    1.0000 </r>
       <r>   -4.8435    1.0000 </r>
       <r>   -4.8435    1.0000 </r>
       <r>    0.2288    1.0000 </r>
       <r>    0.2288    1.0000 </r>
       <r>    0.2288    1.0000 </r>
       <r>    0.2288    1.0000 </r>
       <r>    0.2288    1.0000 </r>
       <r>    0.2288    1.0000 </r>
       <r>    3.5973    0.0000 </r>
       <r>    3.5973    0.0000 </r>
       <r>    3.5973    0.0000 </r>
       <r>    3.5973    0.0000 </r>
       <r>    3.5973    0.0000 </r>
       <r>    3.5973    0.0000 </r>
       <r>    3.6758    0.0000 </r>
      </set>
      <set comment="kpoint 2">
       <r>   -8.3965    1.0000 </r>
       <r>   -7.0307    1.0000 </r>
       <r>   -4.7255    1.0000 </r>
       <r>   -4.7255    1.0000 </r>
       <r>   -4.7255    1.0000 </r>
       <r>   -4.7255    1.0000 </r>
       <r>   -2.0413    1.0000 </r>
       <r>   -0.6001    1.0000 </r>
       <r>   -0.6001    1.0000 </r>
       <r>   -0.6001    1.0000 </r>
       <r>   -0.6001    1.0000 </r>
       <r>    0.7297    0.6815 </r>
       <r>    0.7297    0.6815 </r>
       <r>    1.0298    0.0495 </r>
       <r>    2.1531    0.0000 </r>
       <r>    2.1531    0.0000 </r>
       <r>    3.5763    0.0000 </r>
       <r>    4.5700    0.0000 </r>
       <r>    4.8123    0.0000 </r>
       <r>    5.7026    0.0000 </r>
      </set>
      <set comment="kpoint 3">
       <r>   -7.9497    1.0000 </r>
       <r>   -6.6551    1.0000 </r>
       <r>   -6.6551    1.0000 </r>
       <r>   -5.7035    1.0000 </r>
       <r>   -3.8069    1.0000 </r>
       <r>   -2.6799    1.0000 </r>
       <r>   -2.6799    1.0000 </r>
       <r>   -1.4020    1.0000 </r>
       <r>   -0.7000    1.0000 </r>
       <r>   -0.5278    1.0000 </r>
       <r>   -0.5278    1.0000 </r>
       <r>    0.7165    0.7142 </r>
       <r>    0.8634    0.3181 </r>
       <r>    0.8634    0.3181 </r>
       <r>    1.0687    0.0271 </r>
       <r>    2.9069    0.0000 </r>
       <r>    4.4040    0.0000 </r>
       <r>    5.6818    0.0000 </r>
       <r>    5.8635    0.0000 </r>
       <r>    5.8635    0.0000 </r>
      </set>
      <set comment="kpoint 4">
       <r>   -7.5360    1.0000 </r>
       <r>   -6.4528    1.0000 </r>
       <r>   -6.4528    1.0000 </r>
       <r>   -6.4528    1.0000 </r>
       <r>   -3.6440    1.0000 </r>
       <r>   -3.6440    1.0000 </r>
       <r>   -3.6440    1.0000 </r>
       <r>   -2.3532    1.0000 </r>
       <r>    0.2917    0.9998 </r>
       <r>    0.2917    0.9998 </r>
       <r>    0.2917    0.9998 </r>
       <r>    1.4506    0.0000 </r>
       <r>    1.4506    0.0000 </r>
       <r>    1.4506    0.0000 </r>
       <r>    2.3595    0.0000 </r>
       <r>    2.3595    0.0000 </r>
       <r>    4.1929    0.0000 </r>
       <r>    4.8732    0.0000 </r>
       <r>    4.8732    0.0000 </r>
       <r>    4.8732    0.0000 </r>
      </set>
     </set>
    </set>
   </array>
  </eigenvalues>
  <separator name="orbital magnetization" >
   <v name="MAGDIPOLOUT">      0.00000000      0.00000000      0.00000000</v>
  </separator>
  <dos>
   <i name="efermi">      0.79646709 </i>
   <total>
    <array>
     <dimension dim="1">gridpoints</dimension>
     <dimension dim="2">spin</dimension>
     <field>energy</field>
     <field>total</field>
     <field>integrated</field>
     <set>
      <set comment="spin 1">
       <r>   -10.8581     0.0000     0.0000 </r>
       <r>   -10.7957     0.0000     0.0000 </r>
       <r>   -10.7333     0.0000     0.0000 </r>
       <r>   -10.6709     0.0000     0.0000 </r>
       <r>   -10.6085     0.0000     0.0000 </r>
       <r>   -10.5461     0.0000     0.0000 </r>
       <r>   -10.4837     0.0000     0.0000 </r>
       <r>   -10.4212     0.0000     0.0000 </r>
       <r>   -10.3588     0.0000     0.0000 </r>
       <r>   -10.2964     0.0000     0.0000 </r>
       <r>   -10.2340     0.0000     0.0000 </r>
       <r>   -10.1716     0.0000     0.0000 </r>
       <r>   -10.1092     0.0000     0.0000 </r>
       <r>   -10.0468     0.0000     0.0000 </r>
       <r>    -9.9844     0.0000     0.0000 </r>
       <r>    -9.9220     0.0000     0.0000 </r>
       <r>    -9.8596     0.0000     0.0000 </r>
       <r>    -9.7972     0.0000     0.0000 </r>
       <r>    -9.7348     0.0000     0.0000 </r>
       <r>    -9.6724     0.0000     0.0000 </r>
       <r>    -9.6100     0.0000     0.0000 </r>
       <r>    -9.5476     0.0000     0.0000 </r>
       <r>    -9.4852     0.0000     0.0000 </r>
       <r>    -9.4228     0.0000     0.0000 </r>
       <r>    -9.3604     0.0002     0.0000 </r>
       <r>    -9.2980     0.0009     0.0001 </r>
       <r>    -9.2355     0.0034     0.0003 </r>
       <r>    -9.1731     0.0109     0.0010 </r>
       <r>    -9.1107     0.0286     0.0027 </r>
       <r>    -9.0483     0.0621     0.0066 </r>
       <r>    -8.9859     0.1114     0.0136 </r>
       <r>    -8.9235     0.1653     0.0239 </r>
       <r>    -8.8611     0.2043     0.0366 </r>
       <r>    -8.7987     0.2155     0.0501 </r>
       <r>    -8.7363     0.2115     0.0633 </r>
       <r>    -8.6739     0.2360     0.0780 </r>
       <r>    -8.6115     0.3461     0.0996 </r>
       <r>    -8.5491     0.5729     0.1354 </r>
       <r>    -8.4867     0.8783     0.1902 </r>
       <r>    -8.4243     1.1500     0.2619 </r>
       <r>    -8.3619     1.2641     0.3408 </r>
       <r>    -8.2995     1.1883     0.4150 </r>
       <r>    -8.2371     1.0351     0.4796 </r>
       <r>    -8.1747     1.0043     0.5422 </r>
       <r>    -8.1123     1.2460     0.6200 </r>
       <r>    -8.0498     1.7364     0.7284 </r>
       <r>    -7.9874     2.2557     0.8691 </r>
       <r>    -7.9250     2.5168     1.0262 </r>
       <r>    -7.8626     2.3767     1.1745 </r>
       <r>    -7.8002     1.9568     1.2966 </r>
       <r>    -7.7378     1.5497     1.3933 </r>
       <r>    -7.6754     1.3911     1.4801 </r>
       <r>    -7.6130     1.4933     1.5733 </r>
       <r>    -7.5506     1.6643     1.6772 </r>
       <r>    -7.4882     1.6767     1.7818 </r>
       <r>    -7.4258     1.4430     1.8719 </r>
       <r>    -7.3634     1.0634     1.9382 </r>
       <r>    -7.3010     0.7302     1.9838 </r>
       <r>    -7.2386     0.5954     2.0210 </r>
       <r>    -7.1762     0.6962     2.0644 </r>
       <r>    -7.1138     0.9541     2.1240 </r>
       <r>    -7.0514     1.2303     2.2007 </r>
       <r>    -6.9890     1.4320     2.2901 </r>
       <r>    -6.9265     1.6237     2.3914 </r>
       <r>    -6.8641     2.0358     2.5185 </r>
       <r>    -6.8017     2.9029     2.6996 </r>
       <r>    -6.7393     4.2353     2.9639 </r>
       <r>    -6.6769     5.7395     3.3221 </r>
       <r>    -6.6145     6.9881     3.7582 </r>
       <r>    -6.5521     7.6635     4.2364 </r>
       <r>    -6.4897     7.6348     4.7129 </r>
       <r>    -6.4273     6.8934     5.1431 </r>
       <r>    -6.3649     5.5514     5.4895 </r>
       <r>    -6.3025     3.9008     5.7329 </r>
       <r>    -6.2401     2.3453     5.8793 </r>
       <r>    -6.1777     1.1927     5.9537 </r>
       <r>    -6.1153     0.5229     5.9864 </r>
       <r>    -6.0529     0.2475     6.0018 </r>
       <r>    -5.9905     0.2577     6.0179 </r>
       <r>    -5.9281     0.5099     6.0497 </r>
       <r>    -5.8657     0.9938     6.1117 </r>
       <r>    -5.8033     1.6314     6.2135 </r>
       <r>    -5.7408     2.2157     6.3518 </r>
       <r>    -5.6784     2.4850     6.5069 </r>
       <r>    -5.6160     2.3012     6.6505 </r>
       <r>    -5.5536     1.7594     6.7603 </r>
       <r>    -5.4912     1.1107     6.8296 </r>
       <r>    -5.4288     0.5790     6.8657 </r>
       <r>    -5.3664     0.2498     6.8813 </r>
       <r>    -5.3040     0.0922     6.8871 </r>
       <r>    -5.2416     0.0424     6.8897 </r>
       <r>    -5.1792     0.0669     6.8939 </r>
       <r>    -5.1168     0.1899     6.9057 </r>
       <r>    -5.0544     0.4990     6.9369 </r>
       <r>    -4.9920     1.1242     7.0070 </r>
       <r>    -4.9296     2.1611     7.1419 </r>
       <r>    -4.8672     3.5398     7.3628 </r>
       <r>    -4.8048     4.9266     7.6703 </r>
       <r>    -4.7424     5.8027     8.0324 </r>
       <r>    -4.6800     5.7581     8.3917 </r>
       <r>    -4.6175     4.7931     8.6908 </r>
       <r>    -4.5551     3.3342     8.8989 </r>
       <r>    -4.4927     1.9322     9.0195 </r>
       <r>    -4.4303     0.9306     9.0776 </r>
       <r>    -4.3679     0.3721     9.1008 </r>
       <r>    -4.3055     0.1255     9.1086 </r>
       <r>    -4.2431     0.0455     9.1115 </r>
       <r>    -4.1807     0.0534     9.1148 </r>
       <r>    -4.1183     0.1493     9.1241 </r>
       <r>    -4.0559     0.4005     9.1491 </r>
       <r>    -3.9935     0.9152     9.2062 </r>
       <r>    -3.9311     1.7849     9.3176 </r>
       <r>    -3.8687     3.0044     9.5051 </r>
       <r>    -3.8063     4.4114     9.7804 </r>
       <r>    -3.7439     5.6858    10.1352 </r>
       <r>    -3.6815     6.4288    10.5364 </r>
       <r>    -3.6191     6.3300    10.9314 </r>
       <r>    -3.5567     5.3677    11.2664 </r>
       <r>    -3.4943     3.8754    11.5082 </r>
       <r>    -3.4318     2.3591    11.6555 </r>
       <r>    -3.3694     1.2021    11.7305 </r>
       <r>    -3.3070     0.5102    11.7623 </r>
       <r>    -3.2446     0.1805    11.7736 </r>
       <r>    -3.1822     0.0569    11.7771 </r>
       <r>    -3.1198     0.0338    11.7792 </r>
       <r>    -3.0574     0.0842    11.7845 </r>
       <r>    -2.9950     0.2607    11.8008 </r>
       <r>    -2.9326     0.6851    11.8435 </r>
       <r>    -2.8702     1.4890    11.9364 </r>
       <r>    -2.8078     2.6739    12.1033 </r>
       <r>    -2.7454     3.9727    12.3512 </r>
       <r>    -2.6830     4.9000    12.6570 </r>
       <r>    -2.6206     5.0639    12.9730 </r>
       <r>    -2.5582     4.4877    13.2531 </r>
       <r>    -2.4958     3.5911    13.4772 </r>
       <r>    -2.4334     2.8273    13.6536 </r>
       <r>    -2.3710     2.3596    13.8009 </r>
       <r>    -2.3086     2.0789    13.9306 </r>
       <r>    -2.2461     1.8479    14.0459 </r>
       <r>    -2.1837     1.6534    14.1491 </r>
       <r>    -2.1213     1.5389    14.2451 </r>
       <r>    -2.0589     1.4763    14.3373 </r>
       <r>    -1.9965     1.3608    14.4222 </r>
       <r>    -1.9341     1.1208    14.4921 </r>
       <r>    -1.8717     0.7927    14.5416 </r>
       <r>    -1.8093     0.4856    14.5719 </r>
       <r>    -1.7469     0.3032    14.5908 </r>
       <r>    -1.6845     0.3125    14.6103 </r>
       <r>    -1.6221     0.5564    14.6451 </r>
       <r>    -1.5597     1.0421    14.7101 </r>
       <r>    -1.4973     1.6796    14.8149 </r>
       <r>    -1.4349     2.2484    14.9552 </r>
       <r>    -1.3725     2.4872    15.1104 </r>
       <r>    -1.3101     2.2720    15.2522 </r>
       <r>    -1.2477     1.7142    15.3592 </r>
       <r>    -1.1853     1.0709    15.4260 </r>
       <r>    -1.1228     0.5671    15.4614 </r>
       <r>    -1.0604     0.3050    15.4804 </r>
       <r>    -0.9980     0.3183    15.5003 </r>
       <r>    -0.9356     0.6805    15.5428 </r>
       <r>    -0.8732     1.5568    15.6399 </r>
       <r>    -0.8108     3.1326    15.8354 </r>
       <r>    -0.7484     5.4245    16.1739 </r>
       <r>    -0.6860     8.0762    16.6779 </r>
       <r>    -0.6236    10.3308    17.3226 </r>
       <r>    -0.5612    11.3266    18.0295 </r>
       <r>    -0.4988    10.6041    18.6912 </r>
       <r>    -0.4364     8.4399    19.2179 </r>
       <r>    -0.3740     5.6854    19.5727 </r>
       <r>    -0.3116     3.2287    19.7742 </r>
       <r>    -0.2492     1.5430    19.8705 </r>
       <r>    -0.1868     0.6321    19.9099 </r>
       <r>    -0.1244     0.2740    19.9270 </r>
       <r>    -0.0620     0.2841    19.9448 </r>
       <r>     0.0004     0.6355    19.9844 </r>
       <r>     0.0629     1.4229    20.0732 </r>
       <r>     0.1253     2.6991    20.2417 </r>
       <r>     0.1877     4.2675    20.5080 </r>
       <r>     0.2501     5.6165    20.8585 </r>
       <r>     0.3125     6.1660    21.2433 </r>
       <r>     0.3749     5.7055    21.5993 </r>
       <r>     0.4373     4.6308    21.8883 </r>
       <r>     0.4997     3.7293    22.1210 </r>
       <r>     0.5621     3.6889    22.3512 </r>
       <r>     0.6245     4.7125    22.6453 </r>
       <r>     0.6869     6.4495    23.0478 </r>
       <r>     0.7493     8.2219    23.5609 </r>
       <r>     0.8117     9.3917    24.1470 </r>
       <r>     0.8741     9.6572    24.7497 </r>
       <r>     0.9365     9.1064    25.3179 </r>
       <r>     0.9989     8.0319    25.8192 </r>
       <r>     1.0613     6.7067    26.2377 </r>
       <r>     1.1237     5.3349    26.5706 </r>
       <r>     1.1862     4.1623    26.8304 </r>
       <r>     1.2486     3.5132    27.0496 </r>
       <r>     1.3110     3.5977    27.2741 </r>
       <r>     1.3734     4.2512    27.5394 </r>
       <r>     1.4358     4.9200    27.8465 </r>
       <r>     1.4982     5.0042    28.1588 </r>
       <r>     1.5606     4.2870    28.4263 </r>
       <r>     1.6230     3.0515    28.6167 </r>
       <r>     1.6854     1.8009    28.7291 </r>
       <r>     1.7478     0.8960    28.7850 </r>
       <r>     1.8102     0.4308    28.8119 </r>
       <r>     1.8726     0.3485    28.8337 </r>
       <r>     1.9350     0.5910    28.8705 </r>
       <r>     1.9974     1.1343    28.9413 </r>
       <r>     2.0598     1.9246    29.0614 </r>
       <r>     2.1222     2.8256    29.2378 </r>
       <r>     2.1846     3.6541    29.4658 </r>
       <r>     2.2470     4.2539    29.7313 </r>
       <r>     2.3094     4.5116    30.0128 </r>
       <r>     2.3719     4.3356    30.2834 </r>
       <r>     2.4343     3.7051    30.5146 </r>
       <r>     2.4967     2.7625    30.6870 </r>
       <r>     2.5591     1.8026    30.7995 </r>
       <r>     2.6215     1.1286    30.8699 </r>
       <r>     2.6839     0.9129    30.9269 </r>
       <r>     2.7463     1.1548    30.9989 </r>
       <r>     2.8087     1.6924    31.1046 </r>
       <r>     2.8711     2.2384    31.2442 </r>
       <r>     2.9335     2.4884    31.3995 </r>
       <r>     2.9959     2.2919    31.5426 </r>
       <r>     3.0583     1.7448    31.6514 </r>
       <r>     3.1207     1.1014    31.7202 </r>
       <r>     3.1831     0.5927    31.7572 </r>
       <r>     3.2455     0.3276    31.7776 </r>
       <r>     3.3079     0.3261    31.7980 </r>
       <r>     3.3703     0.5908    31.8348 </r>
       <r>     3.4327     1.1096    31.9041 </r>
       <r>     3.4951     1.7843    32.0154 </r>
       <r>     3.5576     2.3881    32.1645 </r>
       <r>     3.6200     2.6526    32.3300 </r>
       <r>     3.6824     2.4471    32.4827 </r>
       <r>     3.7448     1.8805    32.6001 </r>
       <r>     3.8072     1.2190    32.6761 </r>
       <r>     3.8696     0.7119    32.7206 </r>
       <r>     3.9320     0.4902    32.7512 </r>
       <r>     3.9944     0.5785    32.7873 </r>
       <r>     4.0568     0.9398    32.8459 </r>
       <r>     4.1192     1.4909    32.9389 </r>
       <r>     4.1816     2.1160    33.0710 </r>
       <r>     4.2440     2.7092    33.2401 </r>
       <r>     4.3064     3.2068    33.4402 </r>
       <r>     4.3688     3.5615    33.6624 </r>
       <r>     4.4312     3.7138    33.8942 </r>
       <r>     4.4936     3.6396    34.1213 </r>
       <r>     4.5560     3.4437    34.3362 </r>
       <r>     4.6184     3.3829    34.5473 </r>
       <r>     4.6809     3.7416    34.7808 </r>
       <r>     4.7433     4.5985    35.0678 </r>
       <r>     4.8057     5.6454    35.4201 </r>
       <r>     4.8681     6.2819    35.8121 </r>
       <r>     4.9305     6.0168    36.1876 </r>
       <r>     4.9929     4.8508    36.4903 </r>
       <r>     5.0553     3.2615    36.6939 </r>
       <r>     5.1177     1.8220    36.8076 </r>
       <r>     5.1801     0.8464    36.8604 </r>
       <r>     5.2425     0.3376    36.8815 </r>
       <r>     5.3049     0.1585    36.8914 </r>
       <r>     5.3673     0.2095    36.9044 </r>
       <r>     5.4297     0.5037    36.9359 </r>
       <r>     5.4921     1.1383    37.0069 </r>
       <r>     5.5545     2.1943    37.1438 </r>
       <r>     5.6169     3.6167    37.3695 </r>
       <r>     5.6793     5.1645    37.6918 </r>
       <r>     5.7417     6.4763    38.0960 </r>
       <r>     5.8041     7.1940    38.5449 </r>
       <r>     5.8666     7.0769    38.9866 </r>
       <r>     5.9290     6.1100    39.3679 </r>
       <r>     5.9914     4.5663    39.6528 </r>
       <r>     6.0538     2.9131    39.8346 </r>
       <r>     6.1162     1.5685    39.9325 </r>
       <r>     6.1786     0.7069    39.9766 </r>
       <r>     6.2410     0.2653    39.9932 </r>
       <r>     6.3034     0.0826    39.9983 </r>
       <r>     6.3658     0.0213    39.9997 </r>
       <r>     6.4282     0.0045    39.9999 </r>
       <r>     6.4906     0.0008    40.0000 </r>
       <r>     6.5530     0.0001    40.0000 </r>
       <r>     6.6154     0.0000    40.0000 </r>
       <r>     6.6778     0.0000    40.0000 </r>
       <r>     6.7402     0.0000    40.0000 </r>
       <r>     6.8026     0.0000    40.0000 </r>
       <r>     6.8650     0.0000    40.0000 </r>
       <r>     6.9274     0.0000    40.0000 </r>
       <r>     6.9899     0.0000    40.0000 </r>
       <r>     7.0523     0.0000    40.0000 </r>
       <r>     7.1147     0.0000    40.0000 </r>
       <r>     7.1771     0.0000    40.0000 </r>
       <r>     7.2395     0.0000    40.0000 </r>
       <r>     7.3019     0.0000    40.0000 </r>
       <r>     7.3643     0.0000    40.0000 </r>
       <r>     7.4267     0.0000    40.0000 </r>
       <r>     7.4891     0.0000    40.0000 </r>
       <r>     7.5515     0.0000    40.0000 </r>
       <r>     7.6139     0.0000    40.0000 </r>
       <r>     7.6763     0.0000    40.0000 </r>
       <r>     7.7387     0.0000    40.0000 </r>
       <r>     7.8011     0.0000    40.0000 </r>
       <r>     7.8635     0.0000    40.0000 </r>
      </set>
     </set>
    </array>
   </total>
  </dos>
 </calculation>
 <structure name="finalpos" >
  <crystal>
   <varray name="basis" >
    <v>       5.76286300       0.00000000       0.00000000 </v>
    <v>       0.00000000       5.76286300       0.00000000 </v>
    <v>       0.00000000       0.00000000       5.76286300 </v>
   </varray>
   <i name="volume">    191.38808007 </i>
   <varray name="rec_basis" >
    <v>       0.17352486       0.00000000       0.00000000 </v>
    <v>       0.00000000       0.17352486       0.00000000 </v>
    <v>       0.00000000       0.00000000       0.17352486 </v>
   </varray>
  </crystal>
  <varray name="positions" >
   <v>       0.75000000       0.75000000       0.75000000 </v>
   <v>       0.50000000       0.00000000       0.00000000 </v>
   <v>       0.75000000       0.25000000       0.25000000 </v>
   <v>       0.50000000       0.50000000       0.50000000 </v>
   <v>       0.25000000       0.75000000       0.25000000 </v>
   <v>       0.00000000       0.00000000       0.50000000 </v>
   <v>       0.25000000       0.25000000       0.75000000 </v>
   <v>       0.00000000       0.50000000       0.00000000 </v>
  </varray>
 </structure>
</modeling>
