   8   8   0   0
  0.2392351E+02  0.5762863E-09  0.5762863E-09  0.5762863E-09  0.5000000E-15
  1.000000000000000E-004
  CAR 
 unknown system                          
      8.41904333    -10.85571901  301      0.75307570      1.00000000
    -10.856  0.0000E+00  0.0000E+00
    -10.791  0.0000E+00  0.0000E+00
    -10.727  0.0000E+00  0.0000E+00
    -10.663  0.0000E+00  0.0000E+00
    -10.599  0.0000E+00  0.0000E+00
    -10.534  0.0000E+00  0.0000E+00
    -10.470  0.0000E+00  0.0000E+00
    -10.406  0.0000E+00  0.0000E+00
    -10.342  0.0000E+00  0.0000E+00
    -10.277  0.0000E+00  0.0000E+00
    -10.213  0.0000E+00  0.0000E+00
    -10.149  0.0000E+00  0.0000E+00
    -10.085  0.0000E+00  0.0000E+00
    -10.020  0.4096E-17  0.2632E-18
     -9.956  0.1638E-15  0.1079E-16
     -9.892  0.5890E-14  0.3892E-15
     -9.828  0.1711E-12  0.1138E-13
     -9.763  0.4078E-11  0.2734E-12
     -9.699  0.7972E-10  0.5395E-11
     -9.635  0.1280E-08  0.8762E-10
     -9.571  0.1689E-07  0.1173E-08
     -9.506  0.1834E-06  0.1295E-07
     -9.442  0.1641E-05  0.1184E-06
     -9.378  0.1213E-04  0.8976E-06
     -9.314  0.7416E-04  0.5662E-05
     -9.249  0.3763E-03  0.2984E-04
     -9.185  0.1589E-02  0.1320E-03
     -9.121  0.5613E-02  0.4926E-03
     -9.057  0.1667E-01  0.1564E-02
     -8.992  0.4192E-01  0.4257E-02
     -8.928  0.9007E-01  0.1004E-01
     -8.864  0.1673E+00  0.2080E-01
     -8.800  0.2728E+00  0.3832E-01
     -8.735  0.3971E+00  0.6383E-01
     -8.671  0.5265E+00  0.9766E-01
     -8.607  0.6496E+00  0.1394E+00
     -8.543  0.7604E+00  0.1882E+00
     -8.478  0.8586E+00  0.2434E+00
     -8.414  0.9464E+00  0.3042E+00
     -8.350  0.1027E+01  0.3702E+00
     -8.286  0.1101E+01  0.4409E+00
     -8.222  0.1172E+01  0.5162E+00
     -8.157  0.1240E+01  0.5959E+00
     -8.093  0.1305E+01  0.6797E+00
     -8.029  0.1368E+01  0.7675E+00
     -7.965  0.1430E+01  0.8594E+00
     -7.900  0.1491E+01  0.9552E+00
     -7.836  0.1550E+01  0.1055E+01
     -7.772  0.1608E+01  0.1158E+01
     -7.708  0.1667E+01  0.1265E+01
     -7.643  0.1729E+01  0.1376E+01
     -7.579  0.1789E+01  0.1491E+01
     -7.515  0.1845E+01  0.1610E+01
     -7.451  0.1902E+01  0.1732E+01
     -7.386  0.1966E+01  0.1858E+01
     -7.322  0.2035E+01  0.1989E+01
     -7.258  0.2103E+01  0.2124E+01
     -7.194  0.2165E+01  0.2263E+01
     -7.129  0.2230E+01  0.2407E+01
     -7.065  0.2308E+01  0.2555E+01
     -7.001  0.2402E+01  0.2709E+01
     -6.937  0.2506E+01  0.2870E+01
     -6.872  0.2614E+01  0.3038E+01
     -6.808  0.2729E+01  0.3213E+01
     -6.744  0.2866E+01  0.3398E+01
     -6.680  0.3031E+01  0.3592E+01
     -6.615  0.3204E+01  0.3798E+01
     -6.551  0.3344E+01  0.4013E+01
     -6.487  0.3415E+01  0.4232E+01
     -6.423  0.3412E+01  0.4452E+01
     -6.358  0.3360E+01  0.4668E+01
     -6.294  0.3293E+01  0.4879E+01
     -6.230  0.3228E+01  0.5087E+01
     -6.166  0.3162E+01  0.5290E+01
     -6.101  0.3079E+01  0.5488E+01
     -6.037  0.2972E+01  0.5678E+01
     -5.973  0.2847E+01  0.5861E+01
     -5.909  0.2723E+01  0.6036E+01
     -5.844  0.2624E+01  0.6205E+01
     -5.780  0.2562E+01  0.6369E+01
     -5.716  0.2517E+01  0.6531E+01
     -5.652  0.2444E+01  0.6688E+01
     -5.587  0.2309E+01  0.6837E+01
     -5.523  0.2131E+01  0.6974E+01
     -5.459  0.1972E+01  0.7100E+01
     -5.395  0.1883E+01  0.7221E+01
     -5.330  0.1853E+01  0.7340E+01
     -5.266  0.1815E+01  0.7457E+01
     -5.202  0.1700E+01  0.7566E+01
     -5.138  0.1496E+01  0.7662E+01
     -5.073  0.1251E+01  0.7743E+01
     -5.009  0.1033E+01  0.7809E+01
     -4.945  0.8825E+00  0.7866E+01
     -4.881  0.7966E+00  0.7917E+01
     -4.816  0.7457E+00  0.7965E+01
     -4.752  0.6995E+00  0.8010E+01
     -4.688  0.6472E+00  0.8051E+01
     -4.624  0.6051E+00  0.8090E+01
     -4.559  0.6125E+00  0.8130E+01
     -4.495  0.7153E+00  0.8175E+01
     -4.431  0.9346E+00  0.8236E+01
     -4.367  0.1236E+01  0.8315E+01
     -4.302  0.1531E+01  0.8413E+01
     -4.238  0.1742E+01  0.8525E+01
     -4.174  0.1878E+01  0.8646E+01
     -4.110  0.2062E+01  0.8778E+01
     -4.045  0.2447E+01  0.8936E+01
     -3.981  0.3093E+01  0.9134E+01
     -3.917  0.3886E+01  0.9384E+01
     -3.853  0.4577E+01  0.9678E+01
     -3.788  0.4930E+01  0.9995E+01
     -3.724  0.4863E+01  0.1031E+02
     -3.660  0.4485E+01  0.1060E+02
     -3.596  0.4002E+01  0.1085E+02
     -3.531  0.3578E+01  0.1108E+02
     -3.467  0.3275E+01  0.1129E+02
     -3.403  0.3071E+01  0.1149E+02
     -3.339  0.2916E+01  0.1168E+02
     -3.274  0.2764E+01  0.1186E+02
     -3.210  0.2591E+01  0.1202E+02
     -3.146  0.2397E+01  0.1218E+02
     -3.082  0.2215E+01  0.1232E+02
     -3.017  0.2087E+01  0.1245E+02
     -2.953  0.2016E+01  0.1258E+02
     -2.889  0.1968E+01  0.1271E+02
     -2.825  0.1913E+01  0.1283E+02
     -2.760  0.1858E+01  0.1295E+02
     -2.696  0.1810E+01  0.1307E+02
     -2.632  0.1746E+01  0.1318E+02
     -2.568  0.1640E+01  0.1328E+02
     -2.503  0.1515E+01  0.1338E+02
     -2.439  0.1429E+01  0.1347E+02
     -2.375  0.1408E+01  0.1356E+02
     -2.311  0.1418E+01  0.1365E+02
     -2.246  0.1396E+01  0.1374E+02
     -2.182  0.1331E+01  0.1383E+02
     -2.118  0.1262E+01  0.1391E+02
     -2.054  0.1225E+01  0.1399E+02
     -1.989  0.1205E+01  0.1407E+02
     -1.925  0.1161E+01  0.1414E+02
     -1.861  0.1080E+01  0.1421E+02
     -1.797  0.1000E+01  0.1428E+02
     -1.732  0.9750E+00  0.1434E+02
     -1.668  0.1015E+01  0.1440E+02
     -1.604  0.1084E+01  0.1447E+02
     -1.540  0.1153E+01  0.1455E+02
     -1.475  0.1254E+01  0.1463E+02
     -1.411  0.1465E+01  0.1472E+02
     -1.347  0.1841E+01  0.1484E+02
     -1.283  0.2363E+01  0.1499E+02
     -1.218  0.2939E+01  0.1518E+02
     -1.154  0.3462E+01  0.1540E+02
     -1.090  0.3860E+01  0.1565E+02
     -1.026  0.4111E+01  0.1592E+02
     -0.961  0.4238E+01  0.1619E+02
     -0.897  0.4278E+01  0.1646E+02
     -0.833  0.4254E+01  0.1674E+02
     -0.769  0.4173E+01  0.1700E+02
     -0.704  0.4048E+01  0.1726E+02
     -0.640  0.3925E+01  0.1752E+02
     -0.576  0.3864E+01  0.1776E+02
     -0.512  0.3891E+01  0.1801E+02
     -0.447  0.3971E+01  0.1827E+02
     -0.383  0.4045E+01  0.1853E+02
     -0.319  0.4077E+01  0.1879E+02
     -0.255  0.4080E+01  0.1905E+02
     -0.190  0.4093E+01  0.1932E+02
     -0.126  0.4158E+01  0.1958E+02
     -0.062  0.4291E+01  0.1986E+02
      0.002  0.4475E+01  0.2015E+02
      0.067  0.4669E+01  0.2045E+02
      0.131  0.4838E+01  0.2076E+02
      0.195  0.4979E+01  0.2108E+02
      0.259  0.5107E+01  0.2141E+02
      0.324  0.5232E+01  0.2174E+02
      0.388  0.5342E+01  0.2208E+02
      0.452  0.5409E+01  0.2243E+02
      0.516  0.5402E+01  0.2278E+02
      0.581  0.5317E+01  0.2312E+02
      0.645  0.5184E+01  0.2345E+02
      0.709  0.5067E+01  0.2378E+02
      0.773  0.5016E+01  0.2410E+02
      0.838  0.5021E+01  0.2442E+02
      0.902  0.5014E+01  0.2475E+02
      0.966  0.4941E+01  0.2506E+02
      1.030  0.4817E+01  0.2537E+02
      1.095  0.4699E+01  0.2568E+02
      1.159  0.4627E+01  0.2597E+02
      1.223  0.4588E+01  0.2627E+02
      1.287  0.4547E+01  0.2656E+02
      1.352  0.4489E+01  0.2685E+02
      1.416  0.4424E+01  0.2713E+02
      1.480  0.4365E+01  0.2741E+02
      1.544  0.4305E+01  0.2769E+02
      1.609  0.4228E+01  0.2796E+02
      1.673  0.4135E+01  0.2823E+02
      1.737  0.4053E+01  0.2849E+02
      1.801  0.4006E+01  0.2874E+02
      1.866  0.3980E+01  0.2900E+02
      1.930  0.3923E+01  0.2925E+02
      1.994  0.3792E+01  0.2950E+02
      2.058  0.3592E+01  0.2973E+02
      2.123  0.3365E+01  0.2994E+02
      2.187  0.3140E+01  0.3014E+02
      2.251  0.2910E+01  0.3033E+02
      2.315  0.2659E+01  0.3050E+02
      2.380  0.2396E+01  0.3066E+02
      2.444  0.2159E+01  0.3080E+02
      2.508  0.1975E+01  0.3092E+02
      2.572  0.1832E+01  0.3104E+02
      2.637  0.1699E+01  0.3115E+02
      2.701  0.1559E+01  0.3125E+02
      2.765  0.1422E+01  0.3134E+02
      2.829  0.1304E+01  0.3142E+02
      2.894  0.1205E+01  0.3150E+02
      2.958  0.1111E+01  0.3157E+02
      3.022  0.1015E+01  0.3164E+02
      3.086  0.9202E+00  0.3170E+02
      3.151  0.8326E+00  0.3175E+02
      3.215  0.7534E+00  0.3180E+02
      3.279  0.6850E+00  0.3184E+02
      3.343  0.6370E+00  0.3188E+02
      3.408  0.6223E+00  0.3192E+02
      3.472  0.6476E+00  0.3197E+02
      3.536  0.7092E+00  0.3201E+02
      3.600  0.7961E+00  0.3206E+02
      3.665  0.8994E+00  0.3212E+02
      3.729  0.1017E+01  0.3219E+02
      3.793  0.1154E+01  0.3226E+02
      3.857  0.1308E+01  0.3234E+02
      3.922  0.1471E+01  0.3244E+02
      3.986  0.1638E+01  0.3254E+02
      4.050  0.1806E+01  0.3266E+02
      4.114  0.1979E+01  0.3279E+02
      4.179  0.2155E+01  0.3293E+02
      4.243  0.2335E+01  0.3308E+02
      4.307  0.2523E+01  0.3324E+02
      4.371  0.2721E+01  0.3341E+02
      4.436  0.2923E+01  0.3360E+02
      4.500  0.3119E+01  0.3380E+02
      4.564  0.3312E+01  0.3401E+02
      4.628  0.3522E+01  0.3424E+02
      4.693  0.3764E+01  0.3448E+02
      4.757  0.4039E+01  0.3474E+02
      4.821  0.4329E+01  0.3502E+02
      4.885  0.4616E+01  0.3532E+02
      4.950  0.4883E+01  0.3563E+02
      5.014  0.5096E+01  0.3596E+02
      5.078  0.5208E+01  0.3629E+02
      5.142  0.5184E+01  0.3662E+02
      5.207  0.5035E+01  0.3695E+02
      5.271  0.4808E+01  0.3726E+02
      5.335  0.4552E+01  0.3755E+02
      5.399  0.4291E+01  0.3782E+02
      5.464  0.4027E+01  0.3808E+02
      5.528  0.3756E+01  0.3832E+02
      5.592  0.3471E+01  0.3855E+02
      5.656  0.3176E+01  0.3875E+02
      5.721  0.2879E+01  0.3894E+02
      5.785  0.2586E+01  0.3910E+02
      5.849  0.2306E+01  0.3925E+02
      5.913  0.2047E+01  0.3938E+02
      5.978  0.1819E+01  0.3950E+02
      6.042  0.1621E+01  0.3960E+02
      6.106  0.1441E+01  0.3970E+02
      6.170  0.1259E+01  0.3978E+02
      6.235  0.1061E+01  0.3985E+02
      6.299  0.8462E+00  0.3990E+02
      6.363  0.6276E+00  0.3994E+02
      6.427  0.4256E+00  0.3997E+02
      6.492  0.2599E+00  0.3998E+02
      6.556  0.1410E+00  0.3999E+02
      6.620  0.6717E-01  0.4000E+02
      6.684  0.2781E-01  0.4000E+02
      6.749  0.9912E-02  0.4000E+02
      6.813  0.3015E-02  0.4000E+02
      6.877  0.7762E-03  0.4000E+02
      6.941  0.1678E-03  0.4000E+02
      7.006  0.3028E-04  0.4000E+02
      7.070  0.4534E-05  0.4000E+02
      7.134  0.5608E-06  0.4000E+02
      7.198  0.5710E-07  0.4000E+02
      7.263  0.4774E-08  0.4000E+02
      7.327  0.3271E-09  0.4000E+02
      7.391  0.1834E-10  0.4000E+02
      7.455  0.8408E-12  0.4000E+02
      7.520  0.3143E-13  0.4000E+02
      7.584  0.9400E-15  0.4000E+02
      7.648  0.3072E-16  0.4000E+02
      7.712  0.0000E+00  0.4000E+02
      7.777  0.0000E+00  0.4000E+02
      7.841  0.0000E+00  0.4000E+02
      7.905  0.0000E+00  0.4000E+02
      7.969  0.0000E+00  0.4000E+02
      8.034  0.0000E+00  0.4000E+02
      8.098  0.0000E+00  0.4000E+02
      8.162  0.0000E+00  0.4000E+02
      8.226  0.0000E+00  0.4000E+02
      8.291  0.0000E+00  0.4000E+02
      8.355  0.0000E+00  0.4000E+02
      8.419  0.0000E+00  0.4000E+02
