    8    8    1    1
  0.2392351E+02  0.5762863E-09  0.5762863E-09  0.5762863E-09  0.5000000E-15
  1.000000000000000E-004
  CAR 
 unknown system                          
   24  120   20
 
  0.3742002E-15  0.3742002E-15  0.3742002E-15  0.2962963E-03
   1       -8.855719
   2       -4.841078
   3       -4.841078
   4       -4.841078
   5       -4.841078
   6       -4.841078
   7       -4.841078
   8        0.230617
   9        0.230617
  10        0.230617
  11        0.230617
  12        0.230617
  13        0.230617
  14        3.600288
  15        3.600288
  16        3.600288
  17        3.600288
  18        3.600289
  19        3.600295
  20        3.678280
 
  0.6666667E-01  0.3742002E-15  0.3742002E-15  0.1777778E-02
   1       -8.837218
   2       -5.336746
   3       -4.834756
   4       -4.834756
   5       -4.834756
   6       -4.834756
   7       -4.320225
   8        0.168294
   9        0.168294
  10        0.168294
  11        0.168294
  12        0.250864
  13        0.250864
  14        3.396652
  15        3.505302
  16        3.556452
  17        3.556465
  18        3.712065
  19        3.712065
  20        3.712066
 
  0.1333333E+00  0.3742002E-15  0.3742002E-15  0.1777778E-02
   1       -8.781687
   2       -5.804921
   3       -4.816345
   4       -4.816345
   5       -4.816345
   6       -4.816345
   7       -3.775887
   8        0.007666
   9        0.007666
  10        0.007666
  11        0.007666
  12        0.311754
  13        0.311754
  14        2.857919
  15        3.263233
  16        3.263233
  17        3.457322
  18        3.935649
  19        4.023461
  20        4.023461
 
  0.2000000E+00  0.3742002E-15  0.3742002E-15  0.1777778E-02
   1       -8.689253
   2       -6.244036
   3       -4.788542
   4       -4.788542
   5       -4.788542
   6       -4.788542
   7       -3.212597
   8       -0.201714
   9       -0.201714
  10       -0.201714
  11       -0.201714
  12        0.412327
  13        0.412327
  14        2.261843
  15        2.900853
  16        2.900853
  17        3.454318
  18        4.178399
  19        4.485442
  20        4.485442
 
  0.2666667E+00  0.3742002E-15  0.3742002E-15  0.1777778E-02
   1       -8.559924
   2       -6.652288
   3       -4.755750
   4       -4.755750
   5       -4.755750
   6       -4.755750
   7       -2.632544
   8       -0.414310
   9       -0.414310
  10       -0.414310
  11       -0.414310
  12        0.552510
  13        0.552510
  14        1.650292
  15        2.523434
  16        2.523434
  17        3.495405
  18        4.471922
  19        4.860090
  20        5.055503
 
  0.3333333E+00  0.3742002E-15  0.3742002E-15  0.1777778E-02
   1       -8.394107
   2       -7.028314
   3       -4.723130
   4       -4.723130
   5       -4.723130
   6       -4.723130
   7       -2.038898
   8       -0.598030
   9       -0.598030
  10       -0.598030
  11       -0.598030
  12        0.731550
  13        0.731550
  14        1.032378
  15        2.155055
  16        2.155055
  17        3.579249
  18        4.572442
  19        4.815144
  20        5.705267
 
  0.4000000E+00  0.3742002E-15  0.3742002E-15  0.1777778E-02
   1       -8.191934
   2       -7.371608
   3       -4.696709
   4       -4.696709
   5       -4.696709
   6       -4.696709
   7       -1.434885
   8       -0.731398
   9       -0.731398
  10       -0.731398
  11       -0.731398
  12        0.413101
  13        0.948278
  14        0.948278
  15        1.807982
  16        1.807982
  17        3.704026
  18        4.307085
  19        5.203870
  20        6.418058
 
  0.4666667E+00  0.3742002E-15  0.3742002E-15  0.1777778E-02
   1       -7.953776
   2       -7.680123
   3       -4.682075
   4       -4.682075
   5       -4.682075
   6       -4.682075
   7       -0.821195
   8       -0.802184
   9       -0.802184
  10       -0.802184
  11       -0.802184
  12       -0.205201
  13        1.201570
  14        1.201570
  15        1.489283
  16        1.489283
  17        3.869319
  18        4.071291
  19        5.629016
  20        6.062266
 
  0.6666667E-01  0.6666667E-01  0.3742002E-15  0.3555556E-02
   1       -8.818720
   2       -5.327476
   3       -5.327476
   4       -4.857763
   5       -4.799545
   6       -4.317519
   7       -4.317519
   8       -0.027182
   9        0.180892
  10        0.180892
  11        0.197452
  12        0.197452
  13        0.265155
  14        3.053285
  15        3.435957
  16        3.622220
  17        3.622221
  18        3.633735
  19        3.652290
  20        3.849665
 
  0.1333333E+00  0.6666667E-01  0.3742002E-15  0.7111111E-02
   1       -8.763254
   2       -5.793419
   3       -5.300365
   4       -4.871274
   5       -4.751745
   6       -4.310741
   7       -3.778830
   8       -0.271420
   9        0.000615
  10        0.059180
  11        0.235086
  12        0.238651
  13        0.268241
  14        2.549744
  15        3.145086
  16        3.469873
  17        3.578907
  18        3.779068
  19        3.945181
  20        4.036377
 
  0.2000000E+00  0.6666667E-01  0.3742002E-15  0.7111111E-02
   1       -8.670915
   2       -6.230832
   3       -5.257243
   4       -4.879202
   5       -4.692184
   6       -4.303085
   7       -3.221890
   8       -0.517751
   9       -0.234667
  10       -0.118852
  11        0.111724
  12        0.329999
  13        0.380740
  14        2.006980
  15        2.784915
  16        3.108580
  17        3.580328
  18        4.124020
  19        4.273057
  20        4.419796
 
  0.2666667E+00  0.6666667E-01  0.3742002E-15  0.7111111E-02
   1       -8.541779
   2       -6.637808
   3       -5.201521
   4       -4.887001
   5       -4.623580
   6       -4.298980
   7       -2.650295
   8       -0.734730
   9       -0.477656
  10       -0.293648
  11       -0.064478
  12        0.464737
  13        0.534845
  14        1.446200
  15        2.409547
  16        2.699935
  17        3.625500
  18        4.560100
  19        4.619083
  20        5.001745
 
  0.3333333E+00  0.6666667E-01  0.3742002E-15  0.7111111E-02
   1       -8.376120
   2       -7.013104
   3       -5.138377
   4       -4.900187
   5       -4.550085
   6       -4.303929
   7       -2.068129
   8       -0.900658
   9       -0.696911
  10       -0.434933
  11       -0.244225
  12        0.638793
  13        0.730320
  14        0.873934
  15        2.043836
  16        2.293833
  17        3.712902
  18        4.718363
  19        4.896368
  20        5.221500
 
  0.4000000E+00  0.6666667E-01  0.3742002E-15  0.7111111E-02
   1       -8.174210
   2       -7.355325
   3       -5.073268
   4       -4.924311
   5       -4.477389
   6       -4.323020
   7       -1.478808
   8       -1.001851
   9       -0.870589
  10       -0.521884
  11       -0.396665
  12        0.293218
  13        0.851005
  14        0.966874
  15        1.700064
  16        1.910563
  17        3.841409
  18        4.451609
  19        5.277722
  20        5.902962
 
  0.4666667E+00  0.6666667E-01  0.3742002E-15  0.7111111E-02
   1       -7.936447
   2       -7.663254
   3       -5.012670
   4       -4.961831
   5       -4.411812
   6       -4.359328
   7       -1.030492
   8       -0.985464
   9       -0.885446
  10       -0.545390
  11       -0.501347
  12       -0.294091
  13        1.100174
  14        1.243724
  15        1.383935
  16        1.558787
  17        4.009318
  18        4.213631
  19        5.693109
  20        6.111527
 
  0.1333333E+00  0.1333333E+00  0.3742002E-15  0.3555556E-02
   1       -8.707976
   2       -5.759457
   3       -5.759457
   4       -4.920542
   5       -4.675406
   6       -3.787430
   7       -3.787430
   8       -0.552965
   9        0.037851
  10        0.037851
  11        0.156578
  12        0.156578
  13        0.370061
  14        2.069672
  15        2.858359
  16        3.570240
  17        3.733914
  18        3.912374
  19        3.912374
  20        4.321226
 
  0.2000000E+00  0.1333333E+00  0.3742002E-15  0.7111111E-02
   1       -8.615932
   2       -6.191713
   3       -5.704584
   4       -4.968967
   5       -4.586153
   6       -3.805295
   7       -3.250470
   8       -0.804313
   9       -0.219136
  10        0.016386
  11        0.117773
  12        0.300642
  13        0.377414
  14        1.563258
  15        2.501882
  16        3.370579
  17        3.912218
  18        3.923266
  19        4.397854
  20        4.542870
 
  0.2666667E+00  0.1333333E+00  0.3742002E-15  0.7111111E-02
   1       -8.487260
   2       -6.594626
   3       -5.631565
   4       -5.022541
   5       -4.485473
   6       -3.836965
   7       -2.704218
   8       -1.004183
   9       -0.487596
  10       -0.113694
  11        0.240301
  12        0.283109
  13        0.492653
  14        1.049063
  15        2.130736
  16        2.997384
  17        3.977013
  18        4.289523
  19        4.813692
  20        4.988135
 
  0.3333333E+00  0.1333333E+00  0.3742002E-15  0.7111111E-02
   1       -8.322205
   2       -6.966831
   3       -5.544143
   4       -5.086176
   5       -4.375936
   6       -3.886662
   7       -2.153991
   8       -1.138856
   9       -0.735726
  10       -0.205331
  11        0.138029
  12        0.403267
  13        0.531101
  14        0.732680
  15        1.770174
  16        2.569457
  17        4.071917
  18        4.816359
  19        5.095045
  20        5.132064
 
  0.4000000E+00  0.1333333E+00  0.3742002E-15  0.7111111E-02
   1       -8.121155
   2       -7.306635
   3       -5.447311
   4       -5.162277
   5       -4.261984
   6       -3.956586
   7       -1.604628
   8       -1.199162
   9       -0.943029
  10       -0.241936
  11       -0.012543
  12        0.007912
  13        0.605497
  14        1.020454
  15        1.431531
  16        2.138662
  17        4.206834
  18        4.828392
  19        5.449866
  20        5.492735
 
  0.4666667E+00  0.1333333E+00  0.3742002E-15  0.7111111E-02
   1       -7.884496
   2       -7.612781
   3       -5.347221
   4       -5.250249
   5       -4.149611
   6       -4.045494
   7       -1.183919
   8       -1.095986
   9       -1.059273
  10       -0.521610
  11       -0.218025
  12       -0.137684
  13        0.845627
  14        1.121993
  15        1.353522
  16        1.729058
  17        4.379451
  18        4.587917
  19        5.880427
  20        6.159464
 
  0.2000000E+00  0.2000000E+00  0.3742002E-15  0.3555556E-02
   1       -8.524420
   2       -6.127811
   3       -6.127811
   4       -5.063112
   5       -4.467972
   6       -3.300616
   7       -3.300616
   8       -1.038768
   9       -0.157754
  10       -0.157754
  11        0.205508
  12        0.205508
  13        0.543334
  14        1.088469
  15        2.149280
  16        3.422479
  17        3.899183
  18        4.418328
  19        4.418329
  20        4.956386
 
  0.2666667E+00  0.2000000E+00  0.3742002E-15  0.7111111E-02
   1       -8.396525
   2       -6.523987
   3       -6.040935
   4       -5.166918
   5       -4.337638
   6       -3.375303
   7       -2.794112
   8       -1.207979
   9       -0.446084
  10       -0.050781
  11        0.128264
  12        0.450273
  13        0.581606
  14        0.609185
  15        1.782484
  16        3.205075
  17        4.108807
  18        4.479952
  19        5.016214
  20        5.206824
 
  0.3333333E+00  0.2000000E+00  0.3742002E-15  0.7111111E-02
   1       -8.232527
   2       -6.890504
   3       -5.934575
   4       -5.282400
   5       -4.195767
   6       -3.475319
   7       -2.291027
   8       -1.302147
   9       -0.717576
  10        0.091537
  11        0.099034
  12        0.130671
  13        0.517149
  14        0.750367
  15        1.425839
  16        2.825475
  17        4.516831
  18        4.581659
  19        5.501614
  20        5.608575
 
  0.4000000E+00  0.2000000E+00  0.3742002E-15  0.7111111E-02
   1       -8.032949
   2       -7.225873
   3       -5.812970
   4       -5.409248
   5       -4.045366
   6       -3.598862
   7       -1.794166
   8       -1.319972
   9       -0.952784
  10       -0.346311
  11        0.105556
  12        0.290742
  13        0.400092
  14        1.092633
  15        1.102747
  16        2.384060
  17        4.721631
  18        5.073588
  19        5.346086
  20        5.832734
 
  0.4666667E+00  0.2000000E+00  0.3742002E-15  0.7111111E-02
   1       -7.798209
   2       -7.528995
   3       -5.680439
   4       -5.543858
   5       -3.891333
   6       -3.739807
   7       -1.305573
   8       -1.263351
   9       -1.137828
  10       -0.824081
  11        0.169752
  12        0.273738
  13        0.521295
  14        0.789647
  15        1.500429
  16        1.933317
  17        4.897198
  18        5.107099
  19        5.734094
  20        6.171691
 
  0.2666667E+00  0.2666667E+00  0.3742002E-15  0.3555556E-02
   1       -8.269796
   2       -6.426850
   3       -6.426850
   4       -5.322443
   5       -4.177879
   6       -2.918559
   7       -2.918559
   8       -1.336987
   9       -0.356763
  10       -0.356763
  11        0.161283
  12        0.431966
  13        0.431966
  14        0.778723
  15        1.418877
  16        3.201533
  17        4.125513
  18        5.083663
  19        5.083670
  20        5.645165
 
  0.3333333E+00  0.2666667E+00  0.3742002E-15  0.7111111E-02
   1       -8.107468
   2       -6.785269
   3       -6.305572
   4       -5.488624
   5       -4.005911
   6       -3.072623
   7       -2.469489
   8       -1.388778
   9       -0.646561
  10       -0.283951
  11       -0.220457
  12        0.451364
  13        0.793867
  14        0.846120
  15        1.066418
  16        2.963565
  17        4.364042
  18        5.189396
  19        5.758846
  20        5.776596
 
  0.4000000E+00  0.2666667E+00  0.3742002E-15  0.7111111E-02
   1       -7.910059
   2       -7.114417
   3       -6.163908
   4       -5.661795
   5       -3.822843
   6       -3.248965
   7       -2.028324
   8       -1.365563
   9       -0.903726
  10       -0.723930
  11       -0.040524
  12        0.510767
  13        0.738262
  14        0.807389
  15        1.205608
  16        2.574835
  17        4.799542
  18        5.331570
  19        5.947542
  20        6.065201
 
  0.4666667E+00  0.2666667E+00  0.3742002E-15  0.7111111E-02
   1       -7.678159
   2       -7.412669
   3       -6.005715
   4       -5.836242
   5       -3.632016
   6       -3.438277
   7       -1.592337
   8       -1.272032
   9       -1.158953
  10       -1.115386
  11        0.180901
  12        0.441693
  13        0.603396
  14        0.712018
  15        1.655263
  16        2.121810
  17        5.381410
  18        5.507595
  19        5.714679
  20        6.064330
 
  0.3333333E+00  0.3333333E+00  0.3742002E-15  0.3555556E-02
   1       -7.947386
   2       -6.652754
   3       -6.652754
   4       -5.701112
   5       -3.804549
   6       -2.677509
   7       -2.677509
   8       -1.399797
   9       -0.697660
  10       -0.525641
  11       -0.525641
  12        0.718581
  13        0.865358
  14        0.865358
  15        1.070611
  16        2.909157
  17        4.406670
  18        5.683577
  19        5.866049
  20        5.866062
 
  0.4000000E+00  0.3333333E+00  0.3742002E-15  0.7111111E-02
   1       -7.752990
   2       -6.973299
   3       -6.495631
   4       -5.914237
   5       -3.591089
   6       -2.903116
   7       -2.287260
   8       -1.340079
   9       -1.105197
  10       -0.800403
  11       -0.358286
  12        0.395677
  13        0.960366
  14        1.162395
  15        1.320374
  16        2.651118
  17        4.669158
  18        5.776846
  19        6.007675
  20        6.419043
 
  0.4666667E+00  0.3333333E+00  0.3742002E-15  0.7111111E-02
   1       -7.525121
   2       -7.264598
   3       -6.317213
   4       -6.121683
   5       -3.366855
   6       -3.135672
   7       -1.897730
   8       -1.504534
   9       -1.215558
  10       -1.033194
  11       -0.146912
  12        0.105543
  13        1.062060
  14        1.143761
  15        1.794504
  16        2.254749
  17        5.126237
  18        5.724813
  19        6.010280
  20        6.182915
 
  0.4000000E+00  0.4000000E+00  0.3742002E-15  0.3555556E-02
   1       -7.562643
   2       -6.804229
   3       -6.804229
   4       -6.160418
   5       -3.348140
   6       -2.557238
   7       -2.557238
   8       -1.481200
   9       -1.249743
  10       -0.646689
  11       -0.646689
  12        0.079210
  13        1.409920
  14        1.431233
  15        1.431233
  16        2.558116
  17        4.730426
  18        5.615139
  19        6.068471
  20        6.068500
 
  0.4666667E+00  0.4000000E+00  0.3742002E-15  0.7111111E-02
   1       -7.340073
   2       -7.086366
   3       -6.610122
   4       -6.394039
   5       -3.092919
   6       -2.828017
   7       -2.206764
   8       -1.848917
   9       -1.099488
  10       -0.896298
  11       -0.446360
  12       -0.203510
  13        1.511158
  14        1.520016
  15        1.890937
  16        2.288206
  17        5.007865
  18        5.473536
  19        5.629073
  20        5.795158
 
  0.4666667E+00  0.4666667E+00  0.3742002E-15  0.3555556E-02
   1       -7.124187
   2       -6.880178
   3       -6.880178
   4       -6.648323
   5       -2.807699
   6       -2.511706
   7       -2.511706
   8       -2.185276
   9       -0.928885
  10       -0.709396
  11       -0.709396
  12       -0.476660
  13        1.784836
  14        1.902662
  15        1.902662
  16        2.174847
  17        5.074068
  18        5.347771
  19        5.347771
  20        5.392816
 
  0.6666667E-01  0.6666667E-01  0.6666667E-01  0.2370370E-02
   1       -8.800238
   2       -5.319226
   3       -5.319226
   4       -5.319226
   5       -4.314759
   6       -4.314759
   7       -4.314759
   8       -0.004972
   9       -0.004972
  10       -0.004972
  11        0.285257
  12        0.285257
  13        0.285257
  14        2.765365
  15        3.537092
  16        3.537093
  17        3.627215
  18        3.627216
  19        3.627216
  20        4.043997
 
  0.1333333E+00  0.6666667E-01  0.6666667E-01  0.7111111E-02
   1       -8.744840
   2       -5.782465
   3       -5.295514
   4       -5.295514
   5       -4.307195
   6       -4.307195
   7       -3.781849
   8       -0.247104
   9       -0.247104
  10        0.062575
  11        0.259842
  12        0.259842
  13        0.346277
  14        2.289755
  15        3.255936
  16        3.419560
  17        3.625410
  18        3.788436
  19        3.788440
  20        4.188507
 
  0.2000000E+00  0.6666667E-01  0.6666667E-01  0.7111111E-02
   1       -8.652601
   2       -6.217972
   3       -5.259008
   4       -5.259008
   5       -4.297076
   6       -4.297076
   7       -3.232225
   8       -0.492539
   9       -0.492539
  10        0.137950
  11        0.137950
  12        0.175172
  13        0.446701
  14        1.776871
  15        2.903953
  16        3.070099
  17        3.650141
  18        4.138502
  19        4.138503
  20        4.400817
 
  0.2666667E+00  0.6666667E-01  0.6666667E-01  0.7111111E-02
   1       -8.523602
   2       -6.623514
   3       -5.214689
   4       -5.214689
   5       -4.287175
   6       -4.287175
   7       -2.670157
   8       -0.711198
   9       -0.711198
  10       -0.029064
  11       -0.029064
  12        0.333041
  13        0.585934
  14        1.249697
  15        2.534328
  16        2.643472
  17        3.710637
  18        4.635504
  19        4.635508
  20        4.671042
 
  0.3333333E+00  0.6666667E-01  0.6666667E-01  0.7111111E-02
   1       -8.358162
   2       -6.997642
   3       -5.169188
   4       -5.169188
   5       -4.280039
   6       -4.280039
   7       -2.100624
   8       -0.884020
   9       -0.884020
  10       -0.194575
  11       -0.194575
  12        0.536386
  13        0.712826
  14        0.763295
  15        2.172088
  16        2.209779
  17        3.809402
  18        4.843246
  19        4.993882
  20        5.238591
 
  0.4000000E+00  0.6666667E-01  0.6666667E-01  0.7111111E-02
   1       -8.156559
   2       -7.339166
   3       -5.131237
   4       -5.131237
   5       -4.276636
   6       -4.276636
   7       -1.527805
   8       -1.001588
   9       -1.001588
  10       -0.323740
  11       -0.323740
  12        0.165972
  13        0.785342
  14        0.978333
  15        1.796660
  16        1.829470
  17        3.946639
  18        4.574077
  19        5.363344
  20        5.920005
 
  0.4666667E+00  0.6666667E-01  0.6666667E-01  0.7111111E-02
   1       -7.919150
   2       -7.646483
   3       -5.109392
   4       -5.109392
   5       -4.275686
   6       -4.275686
   7       -1.060411
   8       -1.060411
   9       -0.956002
  10       -0.394904
  11       -0.394904
  12       -0.390386
  13        1.079413
  14        1.229362
  15        1.417717
  16        1.514313
  17        4.121517
  18        4.331992
  19        5.765867
  20        6.166049
 
  0.1333333E+00  0.1333333E+00  0.6666667E-01  0.7111111E-02
   1       -8.689625
   2       -5.750323
   3       -5.750323
   4       -5.282826
   5       -4.296214
   6       -3.791950
   7       -3.791950
   8       -0.523164
   9       -0.173898
  10       -0.173898
  11        0.324803
  12        0.324803
  13        0.390239
  14        1.836536
  15        3.036141
  16        3.473178
  17        3.751737
  18        3.818781
  19        3.818782
  20        4.565217
 
  0.2000000E+00  0.1333333E+00  0.6666667E-01  0.1422222E-01
   1       -8.597693
   2       -6.179951
   3       -5.698848
   4       -5.266852
   5       -4.277913
   6       -3.812020
   7       -3.264301
   8       -0.769490
   9       -0.417293
  10       -0.051922
  11        0.217269
  12        0.397974
  13        0.432856
  14        1.350515
  15        2.685230
  16        3.283474
  17        3.875210
  18        3.932405
  19        4.182521
  20        4.741607
 
  0.2666667E+00  0.1333333E+00  0.6666667E-01  0.1422222E-01
   1       -8.469186
   2       -6.581227
   3       -5.631155
   4       -5.254867
   5       -4.250824
   6       -3.845070
   7       -2.730194
   8       -0.964688
   9       -0.641413
  10        0.077244
  11        0.118568
  12        0.307840
  13        0.585216
  14        0.858528
  15        2.307837
  16        2.912610
  17        3.962453
  18        4.310053
  19        4.684887
  20        4.978597
 
  0.3333333E+00  0.1333333E+00  0.6666667E-01  0.1422222E-01
   1       -8.304376
   2       -6.952003
   3       -5.552508
   4       -5.256140
   5       -4.212695
   6       -3.893291
   7       -2.195412
   8       -1.097023
   9       -0.833325
  10       -0.047447
  11        0.170017
  12        0.335677
  13        0.364936
  14        0.783100
  15        1.930711
  16        2.487199
  17        4.083150
  18        4.836374
  19        5.160427
  20        5.274390
 
  0.4000000E+00  0.1333333E+00  0.6666667E-01  0.1422222E-01
   1       -8.103642
   2       -7.290716
   3       -5.469313
   4       -5.278079
   5       -4.161332
   6       -3.955321
   7       -1.665451
   8       -1.160483
   9       -0.986540
  10       -0.131110
  11       -0.122613
  12        0.030554
  13        0.595564
  14        1.029092
  15        1.565562
  16        2.064487
  17        4.238440
  18        4.895908
  19        5.469058
  20        5.610440
 
  0.4666667E+00  0.1333333E+00  0.6666667E-01  0.1422222E-01
   1       -7.867408
   2       -7.596211
   3       -5.389973
   4       -5.323845
   5       -4.097393
   6       -4.025951
   7       -1.158232
   8       -1.143747
   9       -1.097162
  10       -0.632919
  11       -0.132750
  12       -0.077992
  13        0.891799
  14        1.217420
  15        1.325494
  16        1.672199
  17        4.427425
  18        4.647992
  19        5.977643
  20        6.177490
 
  0.2000000E+00  0.2000000E+00  0.6666667E-01  0.7111111E-02
   1       -8.506311
   2       -6.117980
   3       -6.117980
   4       -5.286267
   5       -4.242616
   6       -3.319847
   7       -3.319847
   8       -0.994950
   9       -0.293360
  10       -0.293360
  11        0.352023
  12        0.352023
  13        0.561759
  14        0.888976
  15        2.338845
  16        3.350271
  17        3.921254
  18        4.257009
  19        4.257013
  20        5.227537
 
  0.2666667E+00  0.2000000E+00  0.6666667E-01  0.1422222E-01
   1       -8.378606
   2       -6.511634
   3       -6.034551
   4       -5.324739
   5       -4.187527
   6       -3.400475
   7       -2.829054
   8       -1.154862
   9       -0.528046
  10       -0.124361
  11        0.256677
  12        0.423464
  13        0.544605
  14        0.601607
  15        1.967414
  16        3.141065
  17        4.131124
  18        4.362719
  19        4.767039
  20        5.433765
 
  0.3333333E+00  0.2000000E+00  0.6666667E-01  0.1422222E-01
   1       -8.214907
   2       -6.876563
   3       -5.933489
   4       -5.387446
   5       -4.109431
   6       -3.504692
   7       -2.344450
   8       -1.241320
   9       -0.745195
  10       -0.037525
  11        0.085945
  12        0.190735
  13        0.540481
  14        0.798221
  15        1.599209
  16        2.765856
  17        4.500402
  18        4.538279
  19        5.373860
  20        5.526049
 
  0.4000000E+00  0.2000000E+00  0.6666667E-01  0.1422222E-01
   1       -8.015694
   2       -7.210741
   3       -5.819562
   4       -5.474738
   5       -4.008631
   6       -3.626955
   7       -1.869998
   8       -1.255742
   9       -0.936513
  10       -0.493800
  11        0.178293
  12        0.331808
  13        0.429149
  14        1.112073
  15        1.245941
  16        2.332415
  17        4.669348
  18        5.093567
  19        5.330358
  20        6.017137
 
  0.4666667E+00  0.2000000E+00  0.6666667E-01  0.1422222E-01
   1       -7.781458
   2       -7.512922
   3       -5.699657
   4       -5.581566
   5       -3.889116
   6       -3.758737
   7       -1.405211
   8       -1.203191
   9       -1.093173
  10       -0.948335
  11        0.221591
  12        0.312270
  13        0.609064
  14        0.914655
  15        1.481523
  16        1.894567
  17        4.868226
  18        5.092683
  19        5.752536
  20        6.302912
 
  0.2666667E+00  0.2666667E+00  0.6666667E-01  0.7111111E-02
   1       -8.252131
   2       -6.416681
   3       -6.416681
   4       -5.424601
   5       -4.095845
   6       -2.962679
   7       -2.962679
   8       -1.270650
   9       -0.374758
  10       -0.374758
  11       -0.016592
  12        0.509826
  13        0.509826
  14        0.796462
  15        1.604343
  16        3.154874
  17        4.148398
  18        4.881337
  19        4.881338
  20        5.416361
 
  0.3333333E+00  0.2666667E+00  0.6666667E-01  0.1422222E-01
   1       -8.090140
   2       -6.772805
   3       -6.298916
   4       -5.551259
   5       -3.976326
   6       -3.124308
   7       -2.535191
   8       -1.310765
   9       -0.618935
  10       -0.450237
  11       -0.184762
  12        0.509953
  13        0.832840
  14        0.864135
  15        1.245200
  16        2.925083
  17        4.386163
  18        5.026579
  19        5.490170
  20        5.574656
 
  0.4000000E+00  0.2666667E+00  0.6666667E-01  0.1422222E-01
   1       -7.893201
   2       -7.100232
   3       -6.162147
   4       -5.697499
   5       -3.831553
   6       -3.302741
   7       -2.116755
   8       -1.279938
   9       -0.874885
  10       -0.842984
  11        0.040170
  12        0.554888
  13        0.828115
  14        0.903246
  15        1.216907
  16        2.542853
  17        4.819825
  18        5.200991
  19        5.722756
  20        6.170143
 
  0.4666667E+00  0.2666667E+00  0.6666667E-01  0.1422222E-01
   1       -7.661959
   2       -7.397229
   3       -6.011696
   4       -5.854093
   5       -3.666153
   6       -3.487049
   7       -1.703790
   8       -1.291589
   9       -1.184760
  10       -1.035754
  11        0.297417
  12        0.585950
  13        0.636715
  14        0.737820
  15        1.646383
  16        2.098954
  17        5.398437
  18        5.399594
  19        5.602197
  20        6.079923
 
  0.3333333E+00  0.3333333E+00  0.6666667E-01  0.7111111E-02
   1       -7.930485
   2       -6.642559
   3       -6.642559
   4       -5.736210
   5       -3.816696
   6       -2.752141
   7       -2.752141
   8       -1.306929
   9       -0.857589
  10       -0.454034
  11       -0.454034
  12        0.896146
  13        0.896569
  14        0.896569
  15        1.086487
  16        2.884164
  17        4.428480
  18        5.544528
  19        5.635803
  20        5.635803
 
  0.4000000E+00  0.3333333E+00  0.6666667E-01  0.1422222E-01
   1       -7.736724
   2       -6.960559
   3       -6.488723
   4       -5.931556
   5       -3.633416
   6       -2.981047
   7       -2.383961
   8       -1.254738
   9       -1.236053
  10       -0.705165
  11       -0.251124
  12        0.565071
  13        0.985215
  14        1.178241
  15        1.332410
  16        2.632983
  17        4.689167
  18        5.663776
  19        5.802462
  20        6.289001
 
  0.4666667E+00  0.3333333E+00  0.6666667E-01  0.1422222E-01
   1       -7.509665
   2       -7.250381
   3       -6.315330
   4       -6.127335
   5       -3.429622
   6       -3.210148
   7       -2.014921
   8       -1.639987
   9       -1.106189
  10       -0.926342
  11       -0.012321
  12        0.260792
  13        1.082410
  14        1.161099
  15        1.793512
  16        2.244163
  17        5.143243
  18        5.737385
  19        5.877114
  20        5.950388
 
  0.4000000E+00  0.4000000E+00  0.6666667E-01  0.7111111E-02
   1       -7.547176
   2       -6.793821
   3       -6.793821
   4       -6.165931
   5       -3.415232
   6       -2.656650
   7       -2.656650
   8       -1.624808
   9       -1.131349
  10       -0.524325
  11       -0.524325
  12        0.246005
  13        1.422967