Automatically generated mesh
     120
Reciprocal lattice
    0.00000000000000    0.00000000000000    0.00000000000000             1
    0.06666666666667    0.00000000000000    0.00000000000000             6
    0.13333333333333    0.00000000000000    0.00000000000000             6
    0.20000000000000    0.00000000000000    0.00000000000000             6
    0.26666666666667    0.00000000000000    0.00000000000000             6
    0.33333333333333    0.00000000000000    0.00000000000000             6
    0.40000000000000    0.00000000000000    0.00000000000000             6
    0.46666666666667    0.00000000000000    0.00000000000000             6
    0.06666666666667    0.06666666666667    0.00000000000000            12
    0.13333333333333    0.06666666666667    0.00000000000000            24
    0.20000000000000    0.06666666666667    0.00000000000000            24
    0.26666666666667    0.06666666666667    0.00000000000000            24
    0.33333333333333    0.06666666666667    0.00000000000000            24
    0.40000000000000    0.06666666666667    0.00000000000000            24
    0.46666666666667    0.06666666666667    0.00000000000000            24
    0.13333333333333    0.13333333333333    0.00000000000000            12
    0.20000000000000    0.13333333333333    0.00000000000000            24
    0.26666666666667    0.13333333333333    0.00000000000000            24
    0.33333333333333    0.13333333333333    0.00000000000000            24
    0.40000000000000    0.13333333333333    0.00000000000000            24
    0.46666666666667    0.13333333333333    0.00000000000000            24
    0.20000000000000    0.20000000000000    0.00000000000000            12
    0.26666666666667    0.20000000000000    0.00000000000000            24
    0.33333333333333    0.20000000000000    0.00000000000000            24
    0.40000000000000    0.20000000000000    0.00000000000000            24
    0.46666666666667    0.20000000000000    0.00000000000000            24
    0.26666666666667    0.26666666666667    0.00000000000000            12
    0.33333333333333    0.26666666666667    0.00000000000000            24
    0.40000000000000    0.26666666666667    0.00000000000000            24
    0.46666666666667    0.26666666666667    0.00000000000000            24
    0.33333333333333    0.33333333333333    0.00000000000000            12
    0.40000000000000    0.33333333333333    0.00000000000000            24
    0.46666666666667    0.33333333333333    0.00000000000000            24
    0.40000000000000    0.40000000000000    0.00000000000000            12
    0.46666666666667    0.40000000000000    0.00000000000000            24
    0.46666666666667    0.46666666666667    0.00000000000000            12
    0.06666666666667    0.06666666666667    0.06666666666667             8
    0.13333333333333    0.06666666666667    0.06666666666667            24
    0.20000000000000    0.06666666666667    0.06666666666667            24
    0.26666666666667    0.06666666666667    0.06666666666667            24
    0.33333333333333    0.06666666666667    0.06666666666667            24
    0.40000000000000    0.06666666666667    0.06666666666667            24
    0.46666666666667    0.06666666666667    0.06666666666667            24
    0.13333333333333    0.13333333333333    0.06666666666667            24
    0.20000000000000    0.13333333333333    0.06666666666667            48
    0.26666666666667    0.13333333333333    0.06666666666667            48
    0.33333333333333    0.13333333333333    0.06666666666667            48
    0.40000000000000    0.13333333333333    0.06666666666667            48
    0.46666666666667    0.13333333333333    0.06666666666667            48
    0.20000000000000    0.20000000000000    0.06666666666667            24
    0.26666666666667    0.20000000000000    0.06666666666667            48
    0.33333333333333    0.20000000000000    0.06666666666667            48
    0.40000000000000    0.20000000000000    0.06666666666667            48
    0.46666666666667    0.20000000000000    0.06666666666667            48
    0.26666666666667    0.26666666666667    0.06666666666667            24
    0.33333333333333    0.26666666666667    0.06666666666667            48
    0.40000000000000    0.26666666666667    0.06666666666667            48
    0.46666666666667    0.26666666666667    0.06666666666667            48
    0.33333333333333    0.33333333333333    0.06666666666667            24
    0.40000000000000    0.33333333333333    0.06666666666667            48
    0.46666666666667    0.33333333333333    0.06666666666667            48
    0.40000000000000    0.40000000000000    0.06666666666667            24
    0.46666666666667    0.40000000000000    0.06666666666667            48
    0.46666666666667    0.46666666666667    0.06666666666667            24
    0.13333333333333    0.13333333333333    0.13333333333333             8
    0.20000000000000    0.13333333333333    0.13333333333333            24
    0.26666666666667    0.13333333333333    0.13333333333333            24
    0.33333333333333    0.13333333333333    0.13333333333333            24
    0.40000000000000    0.13333333333333    0.13333333333333            24
    0.46666666666667    0.13333333333333    0.13333333333333            24
    0.20000000000000    0.20000000000000    0.13333333333333            24
    0.26666666666667    0.20000000000000    0.13333333333333            48
    0.33333333333333    0.20000000000000    0.13333333333333            48
    0.40000000000000    0.20000000000000    0.13333333333333            48
    0.46666666666667    0.20000000000000    0.13333333333333            48
    0.26666666666667    0.26666666666667    0.13333333333333            24
    0.33333333333333    0.26666666666667    0.13333333333333            48
    0.40000000000000    0.26666666666667    0.13333333333333            48
    0.46666666666667    0.26666666666667    0.13333333333333            48
    0.33333333333333    0.33333333333333    0.13333333333333            24
    0.40000000000000    0.33333333333333    0.13333333333333            48
    0.46666666666667    0.33333333333333    0.13333333333333            48
    0.40000000000000    0.40000000000000    0.13333333333333            24
    0.46666666666667    0.40000000000000    0.13333333333333            48
    0.46666666666667    0.46666666666667    0.13333333333333            24
    0.20000000000000    0.20000000000000    0.20000000000000             8
    0.26666666666667    0.20000000000000    0.20000000000000            24
    0.33333333333333    0.20000000000000    0.20000000000000            24
    0.40000000000000    0.20000000000000    0.20000000000000            24
    0.46666666666667    0.20000000000000    0.20000000000000            24
    0.26666666666667    0.26666666666667    0.20000000000000            24
    0.33333333333333    0.26666666666667    0.20000000000000            48
    0.40000000000000    0.26666666666667    0.20000000000000            48
    0.46666666666667    0.26666666666667    0.20000000000000            48
    0.33333333333333    0.33333333333333    0.20000000000000            24
    0.40000000000000    0.33333333333333    0.20000000000000            48
    0.46666666666667    0.33333333333333    0.20000000000000            48
    0.40000000000000    0.40000000000000    0.20000000000000            24
    0.46666666666667    0.40000000000000    0.20000000000000            48
    0.46666666666667    0.46666666666667    0.20000000000000            24
    0.26666666666667    0.26666666666667    0.26666666666667             8
    0.33333333333333    0.26666666666667    0.26666666666667            24
    0.40000000000000    0.26666666666667    0.26666666666667            24
    0.46666666666667    0.26666666666667    0.26666666666667            24
    0.33333333333333    0.33333333333333    0.26666666666667            24
    0.40000000000000    0.33333333333333    0.26666666666667            48
    0.46666666666667    0.33333333333333    0.26666666666667            48
    0.40000000000000    0.40000000000000    0.26666666666667            24
    0.46666666666667    0.40000000000000    0.26666666666667            48
    0.46666666666667    0.46666666666667    0.26666666666667            24
    0.33333333333333    0.33333333333333    0.33333333333333             8
    0.40000000000000    0.33333333333333    0.33333333333333            24
    0.46666666666667    0.33333333333333    0.33333333333333            24
    0.40000000000000    0.40000000000000    0.33333333333333            24
    0.46666666666667    0.40000000000000    0.33333333333333            48
    0.46666666666667    0.46666666666667    0.33333333333333            24
    0.40000000000000    0.40000000000000    0.40000000000000             8
    0.46666666666667    0.40000000000000    0.40000000000000            24
    0.46666666666667    0.46666666666667    0.40000000000000            24
    0.46666666666667    0.46666666666667    0.46666666666667             8
