 vasp.5.3.3 18Dez12 (build Dec 13 2014 13:36:02) complex                        
  
 executed on             LinuxIFC date 2018.11.27  23:29:30
 running on   20 total cores
 distrk:  each k-point on   20 cores,    1 groups
 distr:  one band on NCORES_PER_BAND=   1 cores,   20 groups


--------------------------------------------------------------------------------------------------------


 INCAR:
 POTCAR:   PAW_PBE Ga 08Apr2002                   

 ----------------------------------------------------------------------------- 
|                                                                             |
|           W    W    AA    RRRRR   N    N  II  N    N   GGGG   !!!           |
|           W    W   A  A   R    R  NN   N  II  NN   N  G    G  !!!           |
|           W    W  A    A  R    R  N N  N  II  N N  N  G       !!!           |
|           W WW W  AAAAAA  RRRRR   N  N N  II  N  N N  G  GGG   !            |
|           WW  WW  A    A  R   R   N   NN  II  N   NN  G    G                |
|           W    W  A    A  R    R  N    N  II  N    N   GGGG   !!!           |
|                                                                             |
|      For optimal performance we recommend that you set                      |
|        NPAR = 4 - approx SQRT( number of cores)                             |
|      (number of cores/NPAR must be integer)                                 |
|      This setting will greatly improve the performance of VASP for DFT.     |
|      The default NPAR=number of cores might be grossly inefficient          |
|      on modern multi-core architectures or massively parallel machines.     |
|      Do your own testing.                                                   |
|      Unfortunately you need to use the default for hybrid, GW and RPA       |
|      calculations.                                                          |
|                                                                             |
 ----------------------------------------------------------------------------- 

 POTCAR:   PAW_PBE Ga 08Apr2002                   
   VRHFIN =Ga: s2p1                                                             
   LEXCH  = PE                                                                  
   EATOM  =    58.8688 eV,    4.3267 Ry                                         
                                                                                
   TITEL  = PAW_PBE Ga 08Apr2002                                                
   LULTRA =        F    use ultrasoft PP ?                                      
   IUNSCR =        1    unscreen: 0-lin 1-nonlin 2-no                           
   RPACOR =    2.170    partial core radius                                     
   POMASS =   69.723; ZVAL   =    3.000    mass and valenz                      
   RCORE  =    2.600    outmost cutoff radius                                   
   RWIGS  =    2.650; RWIGS  =    1.402    wigner-seitz radius (au A)           
   ENMAX  =  134.678; ENMIN  =  101.009 eV                                      
   ICORE  =        3    local potential                                         
   LCOR   =        T    correct aug charges                                     
   LPAW   =        T    paw PP                                                  
   EAUG   =  320.264                                                            
   DEXC   =    -.116                                                            
   RMAX   =    3.973    core radius for proj-oper                               
   RAUG   =    1.300    factor for augmentation sphere                          
   RDEP   =    2.684    radius for radial grids                                 
   QCUT   =   -3.146; QGAM   =    6.292    optimization parameters              
                                                                                
   Description                                                                  
     l     E      TYP  RCUT    TYP  RCUT                                        
     0   .000     23  2.600                                                     
     0   .000     23  2.600                                                     
     1   .000     23  2.600                                                     
     1   .000     23  2.600                                                     
     2   .100     23  2.600                                                     
     3  -.100      7  2.600                                                     
  local pseudopotential read in
  partial core-charges read in
  atomic valenz-charges read in
  non local Contribution for L=           0  read in
    real space projection operators read in
  non local Contribution for L=           0  read in
    real space projection operators read in
  non local Contribution for L=           1  read in
    real space projection operators read in
  non local Contribution for L=           1  read in
    real space projection operators read in
  non local Contribution for L=           2  read in
    real space projection operators read in
    PAW grid and wavefunctions read in
 
   number of l-projection  operators is LMAX  =           5
   number of lm-projection operators is LMMAX =          13
 
 PAW_PBE Ga 08Apr2002                   :
 energy of atom  1       EATOM=  -58.8688
 kinetic energy error for atom=    0.0024 (will be added to EATOM!!)
 
 
 POSCAR: MP POSCAR: Ge8                          
  positions in direct lattice
  No initial velocities read in
 exchange correlation table for  LEXCH =        8
   RHO(1)=    0.500       N(1)  =     2000
   RHO(2)=  100.500       N(2)  =     4000
 


--------------------------------------------------------------------------------------------------------


 ion  position               nearest neighbor table
   1  0.750  0.750  0.750-   2 2.50   4 2.50   6 2.50   8 2.50
   2  0.500  0.000  0.000-   1 2.50   3 2.50   5 2.50   7 2.50
   3  0.750  0.250  0.250-   2 2.50   4 2.50   6 2.50   8 2.50
   4  0.500  0.500  0.500-   1 2.50   3 2.50   5 2.50   7 2.50
   5  0.250  0.750  0.250-   2 2.50   4 2.50   6 2.50   8 2.50
   6  0.000  0.000  0.500-   1 2.50   3 2.50   5 2.50   7 2.50
   7  0.250  0.250  0.750-   2 2.50   4 2.50   6 2.50   8 2.50
   8  0.000  0.500  0.000-   1 2.50   3 2.50   5 2.50   7 2.50
 
  LATTYP: Found a simple cubic cell.
 ALAT       =     5.7628630000
  
  Lattice vectors:
  
 A1 = (   5.7628630000,   0.0000000000,   0.0000000000)
 A2 = (   0.0000000000,   5.7628630000,   0.0000000000)
 A3 = (   0.0000000000,   0.0000000000,   5.7628630000)


Analysis of symmetry for initial positions (statically):
=====================================================================
 Subroutine PRICEL returns following result:
 
  LATTYP: Found a face centered cubic cell.
 ALAT       =     5.7628630000
  
  Lattice vectors:
  
 A1 = (   2.8814315000,   2.8814315000,  -0.0000000000)
 A2 = (   2.8814315000,   0.0000000000,  -2.8814315000)
 A3 = (   0.0000000000,   2.8814315000,  -2.8814315000)
 
   4 primitive cells build up your supercell.
 

 Routine SETGRP: Setting up the symmetry group for a 
 simple cubic supercell.


 Subroutine GETGRP returns: Found 48 space group operations
 (whereof 24 operations were pure point group operations)
 out of a pool of 48 trial point group operations.


The static configuration has the point symmetry T_d .
 The point group associated with its full space group is O_h .


Analysis of symmetry for dynamics (positions and initial velocities):
=====================================================================
 Subroutine PRICEL returns following result:
 
  LATTYP: Found a face centered cubic cell.
 ALAT       =     5.7628630000
  
  Lattice vectors:
  
 A1 = (   2.8814315000,   2.8814315000,  -0.0000000000)
 A2 = (   2.8814315000,   0.0000000000,  -2.8814315000)
 A3 = (   0.0000000000,   2.8814315000,  -2.8814315000)
 
   4 primitive cells build up your supercell.
 

 Routine SETGRP: Setting up the symmetry group for a 
 simple cubic supercell.


 Subroutine GETGRP returns: Found 48 space group operations
 (whereof 24 operations were pure point group operations)
 out of a pool of 48 trial point group operations.


The dynamic configuration has the point symmetry T_d .
 The point group associated with its full space group is O_h .


 irot  :   1
 --------------------------------------------------------------------
 isymop:   1   0   0
           0   1   0
           0   0   1

 gtrans:     0.0000000     0.0000000    -0.0000000

 ptrans:     0.0000000     0.0000000     0.0000000
 rotmap:
 (   1->   1)  (   2->   2)  (   3->   3)  (   4->   4)  (   5->   5) 
 (   6->   6)  (   7->   7)  (   8->   8) 

 ptrans:     0.5000000     0.5000000     0.0000000
 rotmap:
 (   1->   7)  (   2->   8)  (   3->   5)  (   4->   6)  (   5->   3) 
 (   6->   4)  (   7->   1)  (   8->   2) 

 ptrans:     0.5000000     0.0000000     0.5000000
 rotmap:
 (   1->   5)  (   2->   6)  (   3->   7)  (   4->   8)  (   5->   1) 
 (   6->   2)  (   7->   3)  (   8->   4) 

 ptrans:     0.0000000     0.5000000     0.5000000
 rotmap:
 (   1->   3)  (   2->   4)  (   3->   1)  (   4->   2)  (   5->   7) 
 (   6->   8)  (   7->   5)  (   8->   6) 


 irot  :   2
 --------------------------------------------------------------------
 isymop:   0   0   1
           1   0   0
           0   1   0

 gtrans:     0.0000000     0.0000000    -0.0000000

 ptrans:     0.0000000     0.0000000     0.0000000
 rotmap:
 (   1->   1)  (   2->   8)  (   3->   5)  (   4->   4)  (   5->   7) 
 (   6->   2)  (   7->   3)  (   8->   6) 

 ptrans:     0.5000000     0.5000000     0.0000000
 rotmap:
 (   1->   7)  (   2->   2)  (   3->   3)  (   4->   6)  (   5->   1) 
 (   6->   8)  (   7->   5)  (   8->   4) 

 ptrans:     0.5000000     0.0000000     0.5000000
 rotmap:
 (   1->   5)  (   2->   4)  (   3->   1)  (   4->   8)  (   5->   3) 
 (   6->   6)  (   7->   7)  (   8->   2) 

 ptrans:     0.0000000     0.5000000     0.5000000
 rotmap:
 (   1->   3)  (   2->   6)  (   3->   7)  (   4->   2)  (   5->   5) 
 (   6->   4)  (   7->   1)  (   8->   8) 


 irot  :   3
 --------------------------------------------------------------------
 isymop:   0   1   0
           0   0   1
           1   0   0

 gtrans:     0.0000000     0.0000000    -0.0000000

 ptrans:     0.0000000     0.0000000     0.0000000
 rotmap:
 (   1->   1)  (   2->   6)  (   3->   7)  (   4->   4)  (   5->   3) 
 (   6->   8)  (   7->   5)  (   8->   2) 

 ptrans:     0.5000000     0.5000000     0.0000000
 rotmap:
 (   1->   7)  (   2->   4)  (   3->   1)  (   4->   6)  (   5->   5) 
 (   6->   2)  (   7->   3)  (   8->   8) 

 ptrans:     0.5000000     0.0000000     0.5000000
 rotmap:
 (   1->   5)  (   2->   2)  (   3->   3)  (   4->   8)  (   5->   7) 
 (   6->   4)  (   7->   1)  (   8->   6) 

 ptrans:     0.0000000     0.5000000     0.5000000
 rotmap:
 (   1->   3)  (   2->   8)  (   3->   5)  (   4->   2)  (   5->   1) 
 (   6->   6)  (   7->   7)  (   8->   4) 


 irot  :   4
 --------------------------------------------------------------------
 isymop:   0   1   0
          -1   0   0
           0   0  -1

 gtrans:     0.0000000     0.0000000    -0.0000000

 ptrans:     0.0000000     0.0000000     0.0000000
 rotmap:
 (   1->   3)  (   2->   8)  (   3->   7)  (   4->   4)  (   5->   1) 
 (   6->   6)  (   7->   5)  (   8->   2) 

 ptrans:     0.5000000     0.5000000     0.0000000
 rotmap:
 (   1->   5)  (   2->   2)  (   3->   1)  (   4->   6)  (   5->   7) 
 (   6->   4)  (   7->   3)  (   8->   8) 

 ptrans:     0.5000000     0.0000000     0.5000000
 rotmap:
 (   1->   7)  (   2->   4)  (   3->   3)  (   4->   8)  (   5->   5) 
 (   6->   2)  (   7->   1)  (   8->   6) 

 ptrans:     0.0000000     0.5000000     0.5000000
 rotmap:
 (   1->   1)  (   2->   6)  (   3->   5)  (   4->   2)  (   5->   3) 
 (   6->   8)  (   7->   7)  (   8->   4) 


 irot  :   5
 --------------------------------------------------------------------
 isymop:   1   0   0
           0   0  -1
           0  -1   0

 gtrans:     0.0000000     0.0000000    -0.0000000

 ptrans:     0.0000000     0.0000000     0.0000000
 rotmap:
 (   1->   3)  (   2->   2)  (   3->   1)  (   4->   4)  (   5->   5) 
 (   6->   8)  (   7->   7)  (   8->   6) 

 ptrans:     0.5000000     0.5000000     0.0000000
 rotmap:
 (   1->   5)  (   2->   8)  (   3->   7)  (   4->   6)  (   5->   3) 
 (   6->   2)  (   7->   1)  (   8->   4) 

 ptrans:     0.5000000     0.0000000     0.5000000
 rotmap:
 (   1->   7)  (   2->   6)  (   3->   5)  (   4->   8)  (   5->   1) 
 (   6->   4)  (   7->   3)  (   8->   2) 

 ptrans:     0.0000000     0.5000000     0.5000000
 rotmap:
 (   1->   1)  (   2->   4)  (   3->   3)  (   4->   2)  (   5->   7) 
 (   6->   6)  (   7->   5)  (   8->   8) 


 irot  :   6
 --------------------------------------------------------------------
 isymop:   0   0   1
           0  -1   0
          -1   0   0

 gtrans:     0.0000000     0.0000000    -0.0000000

 ptrans:     0.0000000     0.0000000     0.0000000
 rotmap:
 (   1->   3)  (   2->   6)  (   3->   5)  (   4->   4)  (   5->   7) 
 (   6->   2)  (   7->   1)  (   8->   8) 

 ptrans:     0.5000000     0.5000000     0.0000000
 rotmap:
 (   1->   5)  (   2->   4)  (   3->   3)  (   4->   6)  (   5->   1) 
 (   6->   8)  (   7->   7)  (   8->   2) 

 ptrans:     0.5000000     0.0000000     0.5000000
 rotmap:
 (   1->   7)  (   2->   2)  (   3->   1)  (   4->   8)  (   5->   3) 
 (   6->   6)  (   7->   5)  (   8->   4) 

 ptrans:     0.0000000     0.5000000     0.5000000
 rotmap:
 (   1->   1)  (   2->   8)  (   3->   7)  (   4->   2)  (   5->   5) 
 (   6->   4)  (   7->   3)  (   8->   6) 


 irot  :   7
 --------------------------------------------------------------------
 isymop:  -1   0   0
           0  -1   0
           0   0   1

 gtrans:     0.0000000     0.0000000    -0.0000000

 ptrans:     0.0000000     0.0000000     0.0000000
 rotmap:
 (   1->   7)  (   2->   2)  (   3->   5)  (   4->   4)  (   5->   3) 
 (   6->   6)  (   7->   1)  (   8->   8) 

 ptrans:     0.5000000     0.5000000     0.0000000
 rotmap:
 (   1->   1)  (   2->   8)  (   3->   3)  (   4->   6)  (   5->   5) 
 (   6->   4)  (   7->   7)  (   8->   2) 

 ptrans:     0.5000000     0.0000000     0.5000000
 rotmap:
 (   1->   3)  (   2->   6)  (   3->   1)  (   4->   8)  (   5->   7) 
 (   6->   2)  (   7->   5)  (   8->   4) 

 ptrans:     0.0000000     0.5000000     0.5000000
 rotmap:
 (   1->   5)  (   2->   4)  (   3->   7)  (   4->   2)  (   5->   1) 
 (   6->   8)  (   7->   3)  (   8->   6) 


 irot  :   8
 --------------------------------------------------------------------
 isymop:   0   0  -1
          -1   0   0
           0   1   0

 gtrans:     0.0000000     0.0000000    -0.0000000

 ptrans:     0.0000000     0.0000000     0.0000000
 rotmap:
 (   1->   7)  (   2->   8)  (   3->   3)  (   4->   4)  (   5->   1) 
 (   6->   2)  (   7->   5)  (   8->   6) 

 ptrans:     0.5000000     0.5000000     0.0000000
 rotmap:
 (   1->   1)  (   2->   2)  (   3->   5)  (   4->   6)  (   5->   7) 
 (   6->   8)  (   7->   3)  (   8->   4) 

 ptrans:     0.5000000     0.0000000     0.5000000
 rotmap:
 (   1->   3)  (   2->   4)  (   3->   7)  (   4->   8)  (   5->   5) 
 (   6->   6)  (   7->   1)  (   8->   2) 

 ptrans:     0.0000000     0.5000000     0.5000000
 rotmap:
 (   1->   5)  (   2->   6)  (   3->   1)  (   4->   2)  (   5->   3) 
 (   6->   4)  (   7->   7)  (   8->   8) 


 irot  :   9
 --------------------------------------------------------------------
 isymop:   0  -1   0
           0   0  -1
           1   0   0

 gtrans:     0.0000000     0.0000000    -0.0000000

 ptrans:     0.0000000     0.0000000     0.0000000
 rotmap:
 (   1->   7)  (   2->   6)  (   3->   1)  (   4->   4)  (   5->   5) 
 (   6->   8)  (   7->   3)  (   8->   2) 

 ptrans:     0.5000000     0.5000000     0.0000000
 rotmap:
 (   1->   1)  (   2->   4)  (   3->   7)  (   4->   6)  (   5->   3) 
 (   6->   2)  (   7->   5)  (   8->   8) 

 ptrans:     0.5000000     0.0000000     0.5000000
 rotmap:
 (   1->   3)  (   2->   2)  (   3->   5)  (   4->   8)  (   5->   1) 
 (   6->   4)  (   7->   7)  (   8->   6) 

 ptrans:     0.0000000     0.5000000     0.5000000
 rotmap:
 (   1->   5)  (   2->   8)  (   3->   3)  (   4->   2)  (   5->   7) 
 (   6->   6)  (   7->   1)  (   8->   4) 


 irot  :  10
 --------------------------------------------------------------------
 isymop:   0  -1   0
           1   0   0
           0   0  -1

 gtrans:     0.0000000     0.0000000    -0.0000000

 ptrans:     0.0000000     0.0000000     0.0000000
 rotmap:
 (   1->   5)  (   2->   8)  (   3->   1)  (   4->   4)  (   5->   7) 
 (   6->   6)  (   7->   3)  (   8->   2) 

 ptrans:     0.5000000     0.5000000     0.0000000
 rotmap:
 (   1->   3)  (   2->   2)  (   3->   7)  (   4->   6)  (   5->   1) 
 (   6->   4)  (   7->   5)  (   8->   8) 

 ptrans:     0.5000000     0.0000000     0.5000000
 rotmap:
 (   1->   1)  (   2->   4)  (   3->   5)  (   4->   8)  (   5->   3) 
 (   6->   2)  (   7->   7)  (   8->   6) 

 ptrans:     0.0000000     0.5000000     0.5000000
 rotmap:
 (   1->   7)  (   2->   6)  (   3->   3)  (   4->   2)  (   5->   5) 
 (   6->   8)  (   7->   1)  (   8->   4) 


 irot  :  11
 --------------------------------------------------------------------
 isymop:  -1   0   0
           0   0   1
           0  -1   0

 gtrans:     0.0000000     0.0000000    -0.0000000

 ptrans:     0.0000000     0.0000000     0.0000000
 rotmap:
 (   1->   5)  (   2->   2)  (   3->   7)  (   4->   4)  (   5->   3) 
 (   6->   8)  (   7->   1)  (   8->   6) 

 ptrans:     0.5000000     0.5000000     0.0000000
 rotmap:
 (   1->   3)  (   2->   8)  (   3->   1)  (   4->   6)  (   5->   5) 
 (   6->   2)  (   7->   7)  (   8->   4) 

 ptrans:     0.5000000     0.0000000     0.5000000
 rotmap:
 (   1->   1)  (   2->   6)  (   3->   3)  (   4->   8)  (   5->   7) 
 (   6->   4)  (   7->   5)  (   8->   2) 

 ptrans:     0.0000000     0.5000000     0.5000000
 rotmap:
 (   1->   7)  (   2->   4)  (   3->   5)  (   4->   2)  (   5->   1) 
 (   6->   6)  (   7->   3)  (   8->   8) 


 irot  :  12
 --------------------------------------------------------------------
 isymop:   0   0  -1
           0   1   0
          -1   0   0

 gtrans:     0.0000000     0.0000000    -0.0000000

 ptrans:     0.0000000     0.0000000     0.0000000
 rotmap:
 (   1->   5)  (   2->   6)  (   3->   3)  (   4->   4)  (   5->   1) 
 (   6->   2)  (   7->   7)  (   8->   8) 

 ptrans:     0.5000000     0.5000000     0.0000000
 rotmap:
 (   1->   3)  (   2->   4)  (   3->   5)  (   4->   6)  (   5->   7) 
 (   6->   8)  (   7->   1)  (   8->   2) 

 ptrans:     0.5000000     0.0000000     0.5000000
 rotmap:
 (   1->   1)  (   2->   2)  (   3->   7)  (   4->   8)  (   5->   5) 
 (   6->   6)  (   7->   3)  (   8->   4) 

 ptrans:     0.0000000     0.5000000     0.5000000
 rotmap:
 (   1->   7)  (   2->   8)  (   3->   1)  (   4->   2)  (   5->   3) 
 (   6->   4)  (   7->   5)  (   8->   6) 


 irot  :  13
 --------------------------------------------------------------------
 isymop:   0   0   1
          -1   0   0
           0  -1   0

 gtrans:     0.0000000     0.0000000    -0.0000000

 ptrans:     0.0000000     0.0000000     0.0000000
 rotmap:
 (   1->   3)  (   2->   8)  (   3->   7)  (   4->   4)  (   5->   5) 
 (   6->   2)  (   7->   1)  (   8->   6) 

 ptrans:     0.5000000     0.5000000     0.0000000
 rotmap:
 (   1->   5)  (   2->   2)  (   3->   1)  (   4->   6)  (   5->   3) 
 (   6->   8)  (   7->   7)  (   8->   4) 

 ptrans:     0.5000000     0.0000000     0.5000000
 rotmap:
 (   1->   7)  (   2->   4)  (   3->   3)  (   4->   8)  (   5->   1) 
 (   6->   6)  (   7->   5)  (   8->   2) 

 ptrans:     0.0000000     0.5000000     0.5000000
 rotmap:
 (   1->   1)  (   2->   6)  (   3->   5)  (   4->   2)  (   5->   7) 
 (   6->   4)  (   7->   3)  (   8->   8) 


 irot  :  14
 --------------------------------------------------------------------
 isymop:   0   1   0
           0   0  -1
          -1   0   0

 gtrans:     0.0000000     0.0000000    -0.0000000

 ptrans:     0.0000000     0.0000000     0.0000000
 rotmap:
 (   1->   3)  (   2->   6)  (   3->   5)  (   4->   4)  (   5->   1) 
 (   6->   8)  (   7->   7)  (   8->   2) 

 ptrans:     0.5000000     0.5000000     0.0000000
 rotmap:
 (   1->   5)  (   2->   4)  (   3->   3)  (   4->   6)  (   5->   7) 
 (   6->   2)  (   7->   1)  (   8->   8) 

 ptrans:     0.5000000     0.0000000     0.5000000
 rotmap:
 (   1->   7)  (   2->   2)  (   3->   1)  (   4->   8)  (   5->   5) 
 (   6->   4)  (   7->   3)  (   8->   6) 

 ptrans:     0.0000000     0.5000000     0.5000000
 rotmap:
 (   1->   1)  (   2->   8)  (   3->   7)  (   4->   2)  (   5->   3) 
 (   6->   6)  (   7->   5)  (   8->   4) 


 irot  :  15
 --------------------------------------------------------------------
 isymop:   1   0   0
           0  -1   0
           0   0  -1

 gtrans:     0.0000000     0.0000000    -0.0000000

 ptrans:     0.0000000     0.0000000     0.0000000
 rotmap:
 (   1->   3)  (   2->   2)  (   3->   1)  (   4->   4)  (   5->   7) 
 (   6->   6)  (   7->   5)  (   8->   8) 

 ptrans:     0.5000000     0.5000000     0.0000000
 rotmap:
 (   1->   5)  (   2->   8)  (   3->   7)  (   4->   6)  (   5->   1) 
 (   6->   4)  (   7->   3)  (   8->   2) 

 ptrans:     0.5000000     0.0000000     0.5000000
 rotmap:
 (   1->   7)  (   2->   6)  (   3->   5)  (   4->   8)  (   5->   3) 
 (   6->   2)  (   7->   1)  (   8->   4) 

 ptrans:     0.0000000     0.5000000     0.5000000
 rotmap:
 (   1->   1)  (   2->   4)  (   3->   3)  (   4->   2)  (   5->   5) 
 (   6->   8)  (   7->   7)  (   8->   6) 


 irot  :  16
 --------------------------------------------------------------------
 isymop:   0   0  -1
           0  -1   0
           1   0   0

 gtrans:     0.0000000     0.0000000    -0.0000000

 ptrans:     0.0000000     0.0000000     0.0000000
 rotmap:
 (   1->   7)  (   2->   6)  (   3->   1)  (   4->   4)  (   5->   3) 
 (   6->   2)  (   7->   5)  (   8->   8) 

 ptrans:     0.5000000     0.5000000     0.0000000
 rotmap:
 (   1->   1)  (   2->   4)  (   3->   7)  (   4->   6)  (   5->   5) 
 (   6->   8)  (   7->   3)  (   8->   2) 

 ptrans:     0.5000000     0.0000000     0.5000000
 rotmap:
 (   1->   3)  (   2->   2)  (   3->   5)  (   4->   8)  (   5->   7) 
 (   6->   6)  (   7->   1)  (   8->   4) 

 ptrans:     0.0000000     0.5000000     0.5000000
 rotmap:
 (   1->   5)  (   2->   8)  (   3->   3)  (   4->   2)  (   5->   1) 
 (   6->   4)  (   7->   7)  (   8->   6) 


 irot  :  17
 --------------------------------------------------------------------
 isymop:   0  -1   0
          -1   0   0
           0   0   1

 gtrans:     0.0000000     0.0000000    -0.0000000

 ptrans:     0.0000000     0.0000000     0.0000000
 rotmap:
 (   1->   7)  (   2->   8)  (   3->   3)  (   4->   4)  (   5->   5) 
 (   6->   6)  (   7->   1)  (   8->   2) 

 ptrans:     0.5000000     0.5000000     0.0000000
 rotmap:
 (   1->   1)  (   2->   2)  (   3->   5)  (   4->   6)  (   5->   3) 
 (   6->   4)  (   7->   7)  (   8->   8) 

 ptrans:     0.5000000     0.0000000     0.5000000
 rotmap:
 (   1->   3)  (   2->   4)  (   3->   7)  (   4->   8)  (   5->   1) 
 (   6->   2)  (   7->   5)  (   8->   6) 

 ptrans:     0.0000000     0.5000000     0.5000000
 rotmap:
 (   1->   5)  (   2->   6)  (   3->   1)  (   4->   2)  (   5->   7) 
 (   6->   8)  (   7->   3)  (   8->   4) 


 irot  :  18
 --------------------------------------------------------------------
 isymop:  -1   0   0
           0   0  -1
           0   1   0

 gtrans:     0.0000000     0.0000000    -0.0000000

 ptrans:     0.0000000     0.0000000     0.0000000
 rotmap:
 (   1->   7)  (   2->   2)  (   3->   5)  (   4->   4)  (   5->   1) 
 (   6->   8)  (   7->   3)  (   8->   6) 

 ptrans:     0.5000000     0.5000000     0.0000000
 rotmap:
 (   1->   1)  (   2->   8)  (   3->   3)  (   4->   6)  (   5->   7) 
 (   6->   2)  (   7->   5)  (   8->   4) 

 ptrans:     0.5000000     0.0000000     0.5000000
 rotmap:
 (   1->   3)  (   2->   6)  (   3->   1)  (   4->   8)  (   5->   5) 
 (   6->   4)  (   7->   7)  (   8->   2) 

 ptrans:     0.0000000     0.5000000     0.5000000
 rotmap:
 (   1->   5)  (   2->   4)  (   3->   7)  (   4->   2)  (   5->   3) 
 (   6->   6)  (   7->   1)  (   8->   8) 


 irot  :  19
 --------------------------------------------------------------------
 isymop:   0  -1   0
           0   0   1
          -1   0   0

 gtrans:     0.0000000     0.0000000    -0.0000000

 ptrans:     0.0000000     0.0000000     0.0000000
 rotmap:
 (   1->   5)  (   2->   6)  (   3->   3)  (   4->   4)  (   5->   7) 
 (   6->   8)  (   7->   1)  (   8->   2) 

 ptrans:     0.5000000     0.5000000     0.0000000
 rotmap:
 (   1->   3)  (   2->   4)  (   3->   5)  (   4->   6)  (   5->   1) 
 (   6->   2)  (   7->   7)  (   8->   8) 

 ptrans:     0.5000000     0.0000000     0.5000000
 rotmap:
 (   1->   1)  (   2->   2)  (   3->   7)  (   4->   8)  (   5->   3) 
 (   6->   4)  (   7->   5)  (   8->   6) 

 ptrans:     0.0000000     0.5000000     0.5000000
 rotmap:
 (   1->   7)  (   2->   8)  (   3->   1)  (   4->   2)  (   5->   5) 
 (   6->   6)  (   7->   3)  (   8->   4) 


 irot  :  20
 --------------------------------------------------------------------
 isymop:  -1   0   0
           0   1   0
           0   0  -1

 gtrans:     0.0000000     0.0000000    -0.0000000

 ptrans:     0.0000000     0.0000000     0.0000000
 rotmap:
 (   1->   5)  (   2->   2)  (   3->   7)  (   4->   4)  (   5->   1) 
 (   6->   6)  (   7->   3)  (   8->   8) 

 ptrans:     0.5000000     0.5000000     0.0000000
 rotmap:
 (   1->   3)  (   2->   8)  (   3->   1)  (   4->   6)  (   5->   7) 
 (   6->   4)  (   7->   5)  (   8->   2) 

 ptrans:     0.5000000     0.0000000     0.5000000
 rotmap:
 (   1->   1)  (   2->   6)  (   3->   3)  (   4->   8)  (   5->   5) 
 (   6->   2)  (   7->   7)  (   8->   4) 

 ptrans:     0.0000000     0.5000000     0.5000000
 rotmap:
 (   1->   7)  (   2->   4)  (   3->   5)  (   4->   2)  (   5->   3) 
 (   6->   8)  (   7->   1)  (   8->   6) 


 irot  :  21
 --------------------------------------------------------------------
 isymop:   0   0  -1
           1   0   0
           0  -1   0

 gtrans:     0.0000000     0.0000000    -0.0000000

 ptrans:     0.0000000     0.0000000     0.0000000
 rotmap:
 (   1->   5)  (   2->   8)  (   3->   1)  (   4->   4)  (   5->   3) 
 (   6->   2)  (   7->   7)  (   8->   6) 

 ptrans:     0.5000000     0.5000000     0.0000000
 rotmap:
 (   1->   3)  (   2->   2)  (   3->   7)  (   4->   6)  (   5->   5) 
 (   6->   8)  (   7->   1)  (   8->   4) 

 ptrans:     0.5000000     0.0000000     0.5000000
 rotmap:
 (   1->   1)  (   2->   4)  (   3->   5)  (   4->   8)  (   5->   7) 
 (   6->   6)  (   7->   3)  (   8->   2) 

 ptrans:     0.0000000     0.5000000     0.5000000
 rotmap:
 (   1->   7)  (   2->   6)  (   3->   3)  (   4->   2)  (   5->   1) 
 (   6->   4)  (   7->   5)  (   8->   8) 


 irot  :  22
 --------------------------------------------------------------------
 isymop:   1   0   0
           0   0   1
           0   1   0

 gtrans:     0.0000000     0.0000000    -0.0000000

 ptrans:     0.0000000     0.0000000     0.0000000
 rotmap:
 (   1->   1)  (   2->   2)  (   3->   3)  (   4->   4)  (   5->   7) 
 (   6->   8)  (   7->   5)  (   8->   6) 

 ptrans:     0.5000000     0.5000000     0.0000000
 rotmap:
 (   1->   7)  (   2->   8)  (   3->   5)  (   4->   6)  (   5->   1) 
 (   6->   2)  (   7->   3)  (   8->   4) 

 ptrans:     0.5000000     0.0000000     0.5000000
 rotmap:
 (   1->   5)  (   2->   6)  (   3->   7)  (   4->   8)  (   5->   3) 
 (   6->   4)  (   7->   1)  (   8->   2) 

 ptrans:     0.0000000     0.5000000     0.5000000
 rotmap:
 (   1->   3)  (   2->   4)  (   3->   1)  (   4->   2)  (   5->   5) 
 (   6->   6)  (   7->   7)  (   8->   8) 


 irot  :  23
 --------------------------------------------------------------------
 isymop:   0   1   0
           1   0   0
           0   0   1

 gtrans:     0.0000000     0.0000000    -0.0000000

 ptrans:     0.0000000     0.0000000     0.0000000
 rotmap:
 (   1->   1)  (   2->   8)  (   3->   5)  (   4->   4)  (   5->   3) 
 (   6->   6)  (   7->   7)  (   8->   2) 

 ptrans:     0.5000000     0.5000000     0.0000000
 rotmap:
 (   1->   7)  (   2->   2)  (   3->   3)  (   4->   6)  (   5->   5) 
 (   6->   4)  (   7->   1)  (   8->   8) 

 ptrans:     0.5000000     0.0000000     0.5000000
 rotmap:
 (   1->   5)  (   2->   4)  (   3->   1)  (   4->   8)  (   5->   7) 
 (   6->   2)  (   7->   3)  (   8->   6) 

 ptrans:     0.0000000     0.5000000     0.5000000
 rotmap:
 (   1->   3)  (   2->   6)  (   3->   7)  (   4->   2)  (   5->   1) 
 (   6->   8)  (   7->   5)  (   8->   4) 


 irot  :  24
 --------------------------------------------------------------------
 isymop:   0   0   1
           0   1   0
           1   0   0

 gtrans:     0.0000000     0.0000000    -0.0000000

 ptrans:     0.0000000     0.0000000     0.0000000
 rotmap:
 (   1->   1)  (   2->   6)  (   3->   7)  (   4->   4)  (   5->   5) 
 (   6->   2)  (   7->   3)  (   8->   8) 

 ptrans:     0.5000000     0.5000000     0.0000000
 rotmap:
 (   1->   7)  (   2->   4)  (   3->   1)  (   4->   6)  (   5->   3) 
 (   6->   8)  (   7->   5)  (   8->   2) 

 ptrans:     0.5000000     0.0000000     0.5000000
 rotmap:
 (   1->   5)  (   2->   2)  (   3->   3)  (   4->   8)  (   5->   1) 
 (   6->   6)  (   7->   7)  (   8->   4) 

 ptrans:     0.0000000     0.5000000     0.5000000
 rotmap:
 (   1->   3)  (   2->   8)  (   3->   5)  (   4->   2)  (   5->   7) 
 (   6->   4)  (   7->   1)  (   8->   6) 


 irot  :  25
 --------------------------------------------------------------------
 isymop:  -1   0   0
           0  -1   0
           0   0  -1

 gtrans:     0.7500000     0.7500000    -0.7500000

 ptrans:     0.0000000     0.0000000     0.0000000
 rotmap:
 (   1->   6)  (   2->   5)  (   3->   8)  (   4->   7)  (   5->   2) 
 (   6->   1)  (   7->   4)  (   8->   3) 

 ptrans:     0.5000000     0.5000000     0.0000000
 rotmap:
 (   1->   4)  (   2->   3)  (   3->   2)  (   4->   1)  (   5->   8) 
 (   6->   7)  (   7->   6)  (   8->   5) 

 ptrans:     0.5000000     0.0000000     0.5000000
 rotmap:
 (   1->   2)  (   2->   1)  (   3->   4)  (   4->   3)  (   5->   6) 
 (   6->   5)  (   7->   8)  (   8->   7) 

 ptrans:     0.0000000     0.5000000     0.5000000
 rotmap:
 (   1->   8)  (   2->   7)  (   3->   6)  (   4->   5)  (   5->   4) 
 (   6->   3)  (   7->   2)  (   8->   1) 


 irot  :  26
 --------------------------------------------------------------------
 isymop:   0   0  -1
          -1   0   0
           0  -1   0

 gtrans:     0.7500000     0.7500000    -0.7500000

 ptrans:     0.0000000     0.0000000     0.0000000
 rotmap:
 (   1->   6)  (   2->   3)  (   3->   2)  (   4->   7)  (   5->   4) 
 (   6->   5)  (   7->   8)  (   8->   1) 

 ptrans:     0.5000000     0.5000000     0.0000000
 rotmap:
 (   1->   4)  (   2->   5)  (   3->   8)  (   4->   1)  (   5->   6) 
 (   6->   3)  (   7->   2)  (   8->   7) 

 ptrans:     0.5000000     0.0000000     0.5000000
 rotmap:
 (   1->   2)  (   2->   7)  (   3->   6)  (   4->   3)  (   5->   8) 
 (   6->   1)  (   7->   4)  (   8->   5) 

 ptrans:     0.0000000     0.5000000     0.5000000
 rotmap:
 (   1->   8)  (   2->   1)  (   3->   4)  (   4->   5)  (   5->   2) 
 (   6->   7)  (   7->   6)  (   8->   3) 


 irot  :  27
 --------------------------------------------------------------------
 isymop:   0  -1   0
           0   0  -1
          -1   0   0

 gtrans:     0.7500000     0.7500000    -0.7500000

 ptrans:     0.0000000     0.0000000     0.0000000
 rotmap:
 (   1->   6)  (   2->   1)  (   3->   4)  (   4->   7)  (   5->   8) 
 (   6->   3)  (   7->   2)  (   8->   5) 

 ptrans:     0.5000000     0.5000000     0.0000000
 rotmap:
 (   1->   4)  (   2->   7)  (   3->   6)  (   4->   1)  (   5->   2) 
 (   6->   5)  (   7->   8)  (   8->   3) 

 ptrans:     0.5000000     0.0000000     0.5000000
 rotmap:
 (   1->   2)  (   2->   5)  (   3->   8)  (   4->   3)  (   5->   4) 
 (   6->   7)  (   7->   6)  (   8->   1) 

 ptrans:     0.0000000     0.5000000     0.5000000
 rotmap:
 (   1->   8)  (   2->   3)  (   3->   2)  (   4->   5)  (   5->   6) 
 (   6->   1)  (   7->   4)  (   8->   7) 


 irot  :  28
 --------------------------------------------------------------------
 isymop:   0  -1   0
           1   0   0
           0   0   1

 gtrans:     0.7500000     0.7500000    -0.7500000

 ptrans:     0.0000000     0.0000000     0.0000000
 rotmap:
 (   1->   8)  (   2->   3)  (   3->   4)  (   4->   7)  (   5->   6) 
 (   6->   1)  (   7->   2)  (   8->   5) 

 ptrans:     0.5000000     0.5000000     0.0000000
 rotmap:
 (   1->   2)  (   2->   5)  (   3->   6)  (   4->   1)  (   5->   4) 
 (   6->   7)  (   7->   8)  (   8->   3) 

 ptrans:     0.5000000     0.0000000     0.5000000
 rotmap:
 (   1->   4)  (   2->   7)  (   3->   8)  (   4->   3)  (   5->   2) 
 (   6->   5)  (   7->   6)  (   8->   1) 

 ptrans:     0.0000000     0.5000000     0.5000000
 rotmap:
 (   1->   6)  (   2->   1)  (   3->   2)  (   4->   5)  (   5->   8) 
 (   6->   3)  (   7->   4)  (   8->   7) 


 irot  :  29
 --------------------------------------------------------------------
 isymop:  -1   0   0
           0   0   1
           0   1   0

 gtrans:     0.7500000     0.7500000    -0.7500000

 ptrans:     0.0000000     0.0000000     0.0000000
 rotmap:
 (   1->   8)  (   2->   5)  (   3->   6)  (   4->   7)  (   5->   2) 
 (   6->   3)  (   7->   4)  (   8->   1) 

 ptrans:     0.5000000     0.5000000     0.0000000
 rotmap:
 (   1->   2)  (   2->   3)  (   3->   4)  (   4->   1)  (   5->   8) 
 (   6->   5)  (   7->   6)  (   8->   7) 

 ptrans:     0.5000000     0.0000000     0.5000000
 rotmap:
 (   1->   4)  (   2->   1)  (   3->   2)  (   4->   3)  (   5->   6) 
 (   6->   7)  (   7->   8)  (   8->   5) 

 ptrans:     0.0000000     0.5000000     0.5000000
 rotmap:
 (   1->   6)  (   2->   7)  (   3->   8)  (   4->   5)  (   5->   4) 
 (   6->   1)  (   7->   2)  (   8->   3) 


 irot  :  30
 --------------------------------------------------------------------
 isymop:   0   0  -1
           0   1   0
           1   0   0

 gtrans:     0.7500000     0.7500000    -0.7500000

 ptrans:     0.0000000     0.0000000     0.0000000
 rotmap:
 (   1->   8)  (   2->   1)  (   3->   2)  (   4->   7)  (   5->   4) 
 (   6->   5)  (   7->   6)  (   8->   3) 

 ptrans:     0.5000000     0.5000000     0.0000000
 rotmap:
 (   1->   2)  (   2->   7)  (   3->   8)  (   4->   1)  (   5->   6) 
 (   6->   3)  (   7->   4)  (   8->   5) 

 ptrans:     0.5000000     0.0000000     0.5000000
 rotmap:
 (   1->   4)  (   2->   5)  (   3->   6)  (   4->   3)  (   5->   8) 
 (   6->   1)  (   7->   2)  (   8->   7) 

 ptrans:     0.0000000     0.5000000     0.5000000
 rotmap:
 (   1->   6)  (   2->   3)  (   3->   4)  (   4->   5)  (   5->   2) 
 (   6->   7)  (   7->   8)  (   8->   1) 


 irot  :  31
 --------------------------------------------------------------------
 isymop:   1   0   0
           0   1   0
           0   0  -1

 gtrans:     0.7500000     0.7500000    -0.7500000

 ptrans:     0.0000000     0.0000000     0.0000000
 rotmap:
 (   1->   4)  (   2->   5)  (   3->   2)  (   4->   7)  (   5->   8) 
 (   6->   1)  (   7->   6)  (   8->   3) 

 ptrans:     0.5000000     0.5000000     0.0000000
 rotmap:
 (   1->   6)  (   2->   3)  (   3->   8)  (   4->   1)  (   5->   2) 
 (   6->   7)  (   7->   4)  (   8->   5) 

 ptrans:     0.5000000     0.0000000     0.5000000
 rotmap:
 (   1->   8)  (   2->   1)  (   3->   6)  (   4->   3)  (   5->   4) 
 (   6->   5)  (   7->   2)  (   8->   7) 

 ptrans:     0.0000000     0.5000000     0.5000000
 rotmap:
 (   1->   2)  (   2->   7)  (   3->   4)  (   4->   5)  (   5->   6) 
 (   6->   3)  (   7->   8)  (   8->   1) 


 irot  :  32
 --------------------------------------------------------------------
 isymop:   0   0   1
           1   0   0
           0  -1   0

 gtrans:     0.7500000     0.7500000    -0.7500000

 ptrans:     0.0000000     0.0000000     0.0000000
 rotmap:
 (   1->   4)  (   2->   3)  (   3->   8)  (   4->   7)  (   5->   6) 
 (   6->   5)  (   7->   2)  (   8->   1) 

 ptrans:     0.5000000     0.5000000     0.0000000
 rotmap:
 (   1->   6)  (   2->   5)  (   3->   2)  (   4->   1)  (   5->   4) 
 (   6->   3)  (   7->   8)  (   8->   7) 

 ptrans:     0.5000000     0.0000000     0.5000000
 rotmap:
 (   1->   8)  (   2->   7)  (   3->   4)  (   4->   3)  (   5->   2) 
 (   6->   1)  (   7->   6)  (   8->   5) 

 ptrans:     0.0000000     0.5000000     0.5000000
 rotmap:
 (   1->   2)  (   2->   1)  (   3->   6)  (   4->   5)  (   5->   8) 
 (   6->   7)  (   7->   4)  (   8->   3) 


 irot  :  33
 --------------------------------------------------------------------
 isymop:   0   1   0
           0   0   1
          -1   0   0

 gtrans:     0.7500000     0.7500000    -0.7500000

 ptrans:     0.0000000     0.0000000     0.0000000
 rotmap:
 (   1->   4)  (   2->   1)  (   3->   6)  (   4->   7)  (   5->   2) 
 (   6->   3)  (   7->   8)  (   8->   5) 

 ptrans:     0.5000000     0.5000000     0.0000000
 rotmap:
 (   1->   6)  (   2->   7)  (   3->   4)  (   4->   1)  (   5->   8) 
 (   6->   5)  (   7->   2)  (   8->   3) 

 ptrans:     0.5000000     0.0000000     0.5000000
 rotmap:
 (   1->   8)  (   2->   5)  (   3->   2)  (   4->   3)  (   5->   6) 
 (   6->   7)  (   7->   4)  (   8->   1) 

 ptrans:     0.0000000     0.5000000     0.5000000
 rotmap:
 (   1->   2)  (   2->   3)  (   3->   8)  (   4->   5)  (   5->   4) 
 (   6->   1)  (   7->   6)  (   8->   7) 


 irot  :  34
 --------------------------------------------------------------------
 isymop:   0   1   0
          -1   0   0
           0   0   1

 gtrans:     0.7500000     0.7500000    -0.7500000

 ptrans:     0.0000000     0.0000000     0.0000000
 rotmap:
 (   1->   2)  (   2->   3)  (   3->   6)  (   4->   7)  (   5->   4) 
 (   6->   1)  (   7->   8)  (   8->   5) 

 ptrans:     0.5000000     0.5000000     0.0000000
 rotmap:
 (   1->   8)  (   2->   5)  (   3->   4)  (   4->   1)  (   5->   6) 
 (   6->   7)  (   7->   2)  (   8->   3) 

 ptrans:     0.5000000     0.0000000     0.5000000
 rotmap:
 (   1->   6)  (   2->   7)  (   3->   2)  (   4->   3)  (   5->   8) 
 (   6->   5)  (   7->   4)  (   8->   1) 

 ptrans:     0.0000000     0.5000000     0.5000000
 rotmap:
 (   1->   4)  (   2->   1)  (   3->   8)  (   4->   5)  (   5->   2) 
 (   6->   3)  (   7->   6)  (   8->   7) 


 irot  :  35
 --------------------------------------------------------------------
 isymop:   1   0   0
           0   0  -1
           0   1   0

 gtrans:     0.7500000     0.7500000    -0.7500000

 ptrans:     0.0000000     0.0000000     0.0000000
 rotmap:
 (   1->   2)  (   2->   5)  (   3->   4)  (   4->   7)  (   5->   8) 
 (   6->   3)  (   7->   6)  (   8->   1) 

 ptrans:     0.5000000     0.5000000     0.0000000
 rotmap:
 (   1->   8)  (   2->   3)  (   3->   6)  (   4->   1)  (   5->   2) 
 (   6->   5)  (   7->   4)  (   8->   7) 

 ptrans:     0.5000000     0.0000000     0.5000000
 rotmap:
 (   1->   6)  (   2->   1)  (   3->   8)  (   4->   3)  (   5->   4) 
 (   6->   7)  (   7->   2)  (   8->   5) 

 ptrans:     0.0000000     0.5000000     0.5000000
 rotmap:
 (   1->   4)  (   2->   7)  (   3->   2)  (   4->   5)  (   5->   6) 
 (   6->   1)  (   7->   8)  (   8->   3) 


 irot  :  36
 --------------------------------------------------------------------
 isymop:   0   0   1
           0  -1   0
           1   0   0

 gtrans:     0.7500000     0.7500000    -0.7500000

 ptrans:     0.0000000     0.0000000     0.0000000
 rotmap:
 (   1->   2)  (   2->   1)  (   3->   8)  (   4->   7)  (   5->   6) 
 (   6->   5)  (   7->   4)  (   8->   3) 

 ptrans:     0.5000000     0.5000000     0.0000000
 rotmap:
 (   1->   8)  (   2->   7)  (   3->   2)  (   4->   1)  (   5->   4) 
 (   6->   3)  (   7->   6)  (   8->   5) 

 ptrans:     0.5000000     0.0000000     0.5000000
 rotmap:
 (   1->   6)  (   2->   5)  (   3->   4)  (   4->   3)  (   5->   2) 
 (   6->   1)  (   7->   8)  (   8->   7) 

 ptrans:     0.0000000     0.5000000     0.5000000
 rotmap:
 (   1->   4)  (   2->   3)  (   3->   6)  (   4->   5)  (   5->   8) 
 (   6->   7)  (   7->   2)  (   8->   1) 


 irot  :  37
 --------------------------------------------------------------------
 isymop:   0   0  -1
           1   0   0
           0   1   0

 gtrans:     0.7500000     0.7500000    -0.7500000

 ptrans:     0.0000000     0.0000000     0.0000000
 rotmap:
 (   1->   8)  (   2->   3)  (   3->   4)  (   4->   7)  (   5->   2) 
 (   6->   5)  (   7->   6)  (   8->   1) 

 ptrans:     0.5000000     0.5000000     0.0000000
 rotmap:
 (   1->   2)  (   2->   5)  (   3->   6)  (   4->   1)  (   5->   8) 
 (   6->   3)  (   7->   4)  (   8->   7) 

 ptrans:     0.5000000     0.0000000     0.5000000
 rotmap:
 (   1->   4)  (   2->   7)  (   3->   8)  (   4->   3)  (   5->   6) 
 (   6->   1)  (   7->   2)  (   8->   5) 

 ptrans:     0.0000000     0.5000000     0.5000000
 rotmap:
 (   1->   6)  (   2->   1)  (   3->   2)  (   4->   5)  (   5->   4) 
 (   6->   7)  (   7->   8)  (   8->   3) 


 irot  :  38
 --------------------------------------------------------------------
 isymop:   0  -1   0
           0   0   1
           1   0   0

 gtrans:     0.7500000     0.7500000    -0.7500000

 ptrans:     0.0000000     0.0000000     0.0000000
 rotmap:
 (   1->   8)  (   2->   1)  (   3->   2)  (   4->   7)  (   5->   6) 
 (   6->   3)  (   7->   4)  (   8->   5) 

 ptrans:     0.5000000     0.5000000     0.0000000
 rotmap:
 (   1->   2)  (   2->   7)  (   3->   8)  (   4->   1)  (   5->   4) 
 (   6->   5)  (   7->   6)  (   8->   3) 

 ptrans:     0.5000000     0.0000000     0.5000000
 rotmap:
 (   1->   4)  (   2->   5)  (   3->   6)  (   4->   3)  (   5->   2) 
 (   6->   7)  (   7->   8)  (   8->   1) 

 ptrans:     0.0000000     0.5000000     0.5000000
 rotmap:
 (   1->   6)  (   2->   3)  (   3->   4)  (   4->   5)  (   5->   8) 
 (   6->   1)  (   7->   2)  (   8->   7) 


 irot  :  39
 --------------------------------------------------------------------
 isymop:  -1   0   0
           0   1   0
           0   0   1

 gtrans:     0.7500000     0.7500000    -0.7500000

 ptrans:     0.0000000     0.0000000     0.0000000
 rotmap:
 (   1->   8)  (   2->   5)  (   3->   6)  (   4->   7)  (   5->   4) 
 (   6->   1)  (   7->   2)  (   8->   3) 

 ptrans:     0.5000000     0.5000000     0.0000000
 rotmap:
 (   1->   2)  (   2->   3)  (   3->   4)  (   4->   1)  (   5->   6) 
 (   6->   7)  (   7->   8)  (   8->   5) 

 ptrans:     0.5000000     0.0000000     0.5000000
 rotmap:
 (   1->   4)  (   2->   1)  (   3->   2)  (   4->   3)  (   5->   8) 
 (   6->   5)  (   7->   6)  (   8->   7) 

 ptrans:     0.0000000     0.5000000     0.5000000
 rotmap:
 (   1->   6)  (   2->   7)  (   3->   8)  (   4->   5)  (   5->   2) 
 (   6->   3)  (   7->   4)  (   8->   1) 


 irot  :  40
 --------------------------------------------------------------------
 isymop:   0   0   1
           0   1   0
          -1   0   0

 gtrans:     0.7500000     0.7500000    -0.7500000

 ptrans:     0.0000000     0.0000000     0.0000000
 rotmap:
 (   1->   4)  (   2->   1)  (   3->   6)  (   4->   7)  (   5->   8) 
 (   6->   5)  (   7->   2)  (   8->   3) 

 ptrans:     0.5000000     0.5000000     0.0000000
 rotmap:
 (   1->   6)  (   2->   7)  (   3->   4)  (   4->   1)  (   5->   2) 
 (   6->   3)  (   7->   8)  (   8->   5) 

 ptrans:     0.5000000     0.0000000     0.5000000
 rotmap:
 (   1->   8)  (   2->   5)  (   3->   2)  (   4->   3)  (   5->   4) 
 (   6->   1)  (   7->   6)  (   8->   7) 

 ptrans:     0.0000000     0.5000000     0.5000000
 rotmap:
 (   1->   2)  (   2->   3)  (   3->   8)  (   4->   5)  (   5->   6) 
 (   6->   7)  (   7->   4)  (   8->   1) 


 irot  :  41
 --------------------------------------------------------------------
 isymop:   0   1   0
           1   0   0
           0   0  -1

 gtrans:     0.7500000     0.7500000    -0.7500000

 ptrans:     0.0000000     0.0000000     0.0000000
 rotmap:
 (   1->   4)  (   2->   3)  (   3->   8)  (   4->   7)  (   5->   2) 
 (   6->   1)  (   7->   6)  (   8->   5) 

 ptrans:     0.5000000     0.5000000     0.0000000
 rotmap:
 (   1->   6)  (   2->   5)  (   3->   2)  (   4->   1)  (   5->   8) 
 (   6->   7)  (   7->   4)  (   8->   3) 

 ptrans:     0.5000000     0.0000000     0.5000000
 rotmap:
 (   1->   8)  (   2->   7)  (   3->   4)  (   4->   3)  (   5->   6) 
 (   6->   5)  (   7->   2)  (   8->   1) 

 ptrans:     0.0000000     0.5000000     0.5000000
 rotmap:
 (   1->   2)  (   2->   1)  (   3->   6)  (   4->   5)  (   5->   4) 
 (   6->   3)  (   7->   8)  (   8->   7) 


 irot  :  42
 --------------------------------------------------------------------
 isymop:   1   0   0
           0   0   1
           0  -1   0

 gtrans:     0.7500000     0.7500000    -0.7500000

 ptrans:     0.0000000     0.0000000     0.0000000
 rotmap:
 (   1->   4)  (   2->   5)  (   3->   2)  (   4->   7)  (   5->   6) 
 (   6->   3)  (   7->   8)  (   8->   1) 

 ptrans:     0.5000000     0.5000000     0.0000000
 rotmap:
 (   1->   6)  (   2->   3)  (   3->   8)  (   4->   1)  (   5->   4) 
 (   6->   5)  (   7->   2)  (   8->   7) 

 ptrans:     0.5000000     0.0000000     0.5000000
 rotmap:
 (   1->   8)  (   2->   1)  (   3->   6)  (   4->   3)  (   5->   2) 
 (   6->   7)  (   7->   4)  (   8->   5) 

 ptrans:     0.0000000     0.5000000     0.5000000
 rotmap:
 (   1->   2)  (   2->   7)  (   3->   4)  (   4->   5)  (   5->   8) 
 (   6->   1)  (   7->   6)  (   8->   3) 


 irot  :  43
 --------------------------------------------------------------------
 isymop:   0   1   0
           0   0  -1
           1   0   0

 gtrans:     0.7500000     0.7500000    -0.7500000

 ptrans:     0.0000000     0.0000000     0.0000000
 rotmap:
 (   1->   2)  (   2->   1)  (   3->   8)  (   4->   7)  (   5->   4) 
 (   6->   3)  (   7->   6)  (   8->   5) 

 ptrans:     0.5000000     0.5000000     0.0000000
 rotmap:
 (   1->   8)  (   2->   7)  (   3->   2)  (   4->   1)  (   5->   6) 
 (   6->   5)  (   7->   4)  (   8->   3) 

 ptrans:     0.5000000     0.0000000     0.5000000
 rotmap:
 (   1->   6)  (   2->   5)  (   3->   4)  (   4->   3)  (   5->   8) 
 (   6->   7)  (   7->   2)  (   8->   1) 

 ptrans:     0.0000000     0.5000000     0.5000000
 rotmap:
 (   1->   4)  (   2->   3)  (   3->   6)  (   4->   5)  (   5->   2) 
 (   6->   1)  (   7->   8)  (   8->   7) 


 irot  :  44
 --------------------------------------------------------------------
 isymop:   1   0   0
           0  -1   0
           0   0   1

 gtrans:     0.7500000     0.7500000    -0.7500000

 ptrans:     0.0000000     0.0000000     0.0000000
 rotmap:
 (   1->   2)  (   2->   5)  (   3->   4)  (   4->   7)  (   5->   6) 
 (   6->   1)  (   7->   8)  (   8->   3) 

 ptrans:     0.5000000     0.5000000     0.0000000
 rotmap:
 (   1->   8)  (   2->   3)  (   3->   6)  (   4->   1)  (   5->   4) 
 (   6->   7)  (   7->   2)  (   8->   5) 

 ptrans:     0.5000000     0.0000000     0.5000000
 rotmap:
 (   1->   6)  (   2->   1)  (   3->   8)  (   4->   3)  (   5->   2) 
 (   6->   5)  (   7->   4)  (   8->   7) 

 ptrans:     0.0000000     0.5000000     0.5000000
 rotmap:
 (   1->   4)  (   2->   7)  (   3->   2)  (   4->   5)  (   5->   8) 
 (   6->   3)  (   7->   6)  (   8->   1) 


 irot  :  45
 --------------------------------------------------------------------
 isymop:   0   0   1
          -1   0   0
           0   1   0

 gtrans:     0.7500000     0.7500000    -0.7500000

 ptrans:     0.0000000     0.0000000     0.0000000
 rotmap:
 (   1->   2)  (   2->   3)  (   3->   6)  (   4->   7)  (   5->   8) 
 (   6->   5)  (   7->   4)  (   8->   1) 

 ptrans:     0.5000000     0.5000000     0.0000000
 rotmap:
 (   1->   8)  (   2->   5)  (   3->   4)  (   4->   1)  (   5->   2) 
 (   6->   3)  (   7->   6)  (   8->   7) 

 ptrans:     0.5000000     0.0000000     0.5000000
 rotmap:
 (   1->   6)  (   2->   7)  (   3->   2)  (   4->   3)  (   5->   4) 
 (   6->   1)  (   7->   8)  (   8->   5) 

 ptrans:     0.0000000     0.5000000     0.5000000
 rotmap:
 (   1->   4)  (   2->   1)  (   3->   8)  (   4->   5)  (   5->   6) 
 (   6->   7)  (   7->   2)  (   8->   3) 


 irot  :  46
 --------------------------------------------------------------------
 isymop:  -1   0   0
           0   0  -1
           0  -1   0

 gtrans:     0.7500000     0.7500000    -0.7500000

 ptrans:     0.0000000     0.0000000     0.0000000
 rotmap:
 (   1->   6)  (   2->   5)  (   3->   8)  (   4->   7)  (   5->   4) 
 (   6->   3)  (   7->   2)  (   8->   1) 

 ptrans:     0.5000000     0.5000000     0.0000000
 rotmap:
 (   1->   4)  (   2->   3)  (   3->   2)  (   4->   1)  (   5->   6) 
 (   6->   5)  (   7->   8)  (   8->   7) 

 ptrans:     0.5000000     0.0000000     0.5000000
 rotmap:
 (   1->   2)  (   2->   1)  (   3->   4)  (   4->   3)  (   5->   8) 
 (   6->   7)  (   7->   6)  (   8->   5) 

 ptrans:     0.0000000     0.5000000     0.5000000
 rotmap:
 (   1->   8)  (   2->   7)  (   3->   6)  (   4->   5)  (   5->   2) 
 (   6->   1)  (   7->   4)  (   8->   3) 


 irot  :  47
 --------------------------------------------------------------------
 isymop:   0  -1   0
          -1   0   0
           0   0  -1

 gtrans:     0.7500000     0.7500000    -0.7500000

 ptrans:     0.0000000     0.0000000     0.0000000
 rotmap:
 (   1->   6)  (   2->   3)  (   3->   2)  (   4->   7)  (   5->   8) 
 (   6->   1)  (   7->   4)  (   8->   5) 

 ptrans:     0.5000000     0.5000000     0.0000000
 rotmap:
 (   1->   4)  (   2->   5)  (   3->   8)  (   4->   1)  (   5->   2) 
 (   6->   7)  (   7->   6)  (   8->   3) 

 ptrans:     0.5000000     0.0000000     0.5000000
 rotmap:
 (   1->   2)  (   2->   7)  (   3->   6)  (   4->   3)  (   5->   4) 
 (   6->   5)  (   7->   8)  (   8->   1) 

 ptrans:     0.0000000     0.5000000     0.5000000
 rotmap:
 (   1->   8)  (   2->   1)  (   3->   4)  (   4->   5)  (   5->   6) 
 (   6->   3)  (   7->   2)  (   8->   7) 


 irot  :  48
 --------------------------------------------------------------------
 isymop:   0   0  -1
           0  -1   0
          -1   0   0

 gtrans:     0.7500000     0.7500000    -0.7500000

 ptrans:     0.0000000     0.0000000     0.0000000
 rotmap:
 (   1->   6)  (   2->   1)  (   3->   4)  (   4->   7)  (   5->   2) 
 (   6->   5)  (   7->   8)  (   8->   3) 

 ptrans:     0.5000000     0.5000000     0.0000000
 rotmap:
 (   1->   4)  (   2->   7)  (   3->   6)  (   4->   1)  (   5->   8) 
 (   6->   3)  (   7->   2)  (   8->   5) 

 ptrans:     0.5000000     0.0000000     0.5000000
 rotmap:
 (   1->   2)  (   2->   5)  (   3->   8)  (   4->   3)  (   5->   6) 
 (   6->   1)  (   7->   4)  (   8->   7) 

 ptrans:     0.0000000     0.5000000     0.5000000
 rotmap:
 (   1->   8)  (   2->   3)  (   3->   2)  (   4->   5)  (   5->   4) 
 (   6->   7)  (   7->   6)  (   8->   1) 
 
 
 KPOINTS: Automatic kpoint scheme                 

Automatic generation of k-mesh.
Space group operators:
 irot       det(A)        alpha          n_x          n_y          n_z        tau_x        tau_y        tau_z
    1     1.000000     0.000001     1.000000     0.000000     0.000000     0.000000     0.000000    -0.000000
    2     1.000000   120.000000    -0.577350    -0.577350    -0.577350     0.000000     0.000000    -0.000000
    3     1.000000   120.000000     0.577350     0.577350     0.577350     0.000000     0.000000    -0.000000
    4    -1.000000    90.000000     0.000000     0.000000    -1.000000     0.000000     0.000000    -0.000000
    5    -1.000000   180.000000     0.000000     0.707107     0.707107     0.000000     0.000000    -0.000000
    6    -1.000000    90.000000     0.000000     1.000000     0.000000     0.000000     0.000000    -0.000000
    7     1.000000   180.000000     0.000000     0.000000     1.000000     0.000000     0.000000    -0.000000
    8     1.000000   120.000000    -0.577350     0.577350     0.577350     0.000000     0.000000    -0.000000
    9     1.000000   120.000000    -0.577350     0.577350    -0.577350     0.000000     0.000000    -0.000000
   10    -1.000000    90.000000     0.000000     0.000000     1.000000     0.000000     0.000000    -0.000000
   11    -1.000000    90.000000    -1.000000     0.000000     0.000000     0.000000     0.000000    -0.000000
   12    -1.000000   180.000000     0.707107     0.000000     0.707107     0.000000     0.000000    -0.000000
   13     1.000000   120.000000     0.577350    -0.577350     0.577350     0.000000     0.000000    -0.000000
   14     1.000000   120.000000    -0.577350    -0.577350     0.577350     0.000000     0.000000    -0.000000
   15     1.000000   180.000000     1.000000     0.000000     0.000000     0.000000     0.000000    -0.000000
   16    -1.000000    90.000000     0.000000    -1.000000     0.000000     0.000000     0.000000    -0.000000
   17    -1.000000   180.000000     0.707107     0.707107     0.000000     0.000000     0.000000    -0.000000
   18    -1.000000    90.000000     1.000000     0.000000     0.000000     0.000000     0.000000    -0.000000
   19     1.000000   120.000000     0.577350    -0.577350    -0.577350     0.000000     0.000000    -0.000000
   20     1.000000   180.000000     0.000000     1.000000     0.000000     0.000000     0.000000    -0.000000
   21     1.000000   120.000000     0.577350     0.577350    -0.577350     0.000000     0.000000    -0.000000
   22    -1.000000   180.000000     0.000000    -0.707107     0.707107     0.000000     0.000000    -0.000000
   23    -1.000000   180.000000     0.707107    -0.707107     0.000000     0.000000     0.000000    -0.000000
   24    -1.000000   180.000000     0.707107     0.000000    -0.707107     0.000000     0.000000    -0.000000
   25    -1.000000     0.000001     1.000000     0.000000     0.000000     0.750000     0.750000    -0.750000
   26    -1.000000   120.000000    -0.577350    -0.577350    -0.577350     0.750000     0.750000    -0.750000
   27    -1.000000   120.000000     0.577350     0.577350     0.577350     0.750000     0.750000    -0.750000
   28     1.000000    90.000000     0.000000     0.000000    -1.000000     0.750000     0.750000    -0.750000
   29     1.000000   180.000000     0.000000     0.707107     0.707107     0.750000     0.750000    -0.750000
   30     1.000000    90.000000     0.000000     1.000000     0.000000     0.750000     0.750000    -0.750000
   31    -1.000000   180.000000     0.000000     0.000000     1.000000     0.750000     0.750000    -0.750000
   32    -1.000000   120.000000    -0.577350     0.577350     0.577350     0.750000     0.750000    -0.750000
   33    -1.000000   120.000000    -0.577350     0.577350    -0.577350     0.750000     0.750000    -0.750000
   34     1.000000    90.000000     0.000000     0.000000     1.000000     0.750000     0.750000    -0.750000
   35     1.000000    90.000000    -1.000000     0.000000     0.000000     0.750000     0.750000    -0.750000
   36     1.000000   180.000000     0.707107     0.000000     0.707107     0.750000     0.750000    -0.750000
   37    -1.000000   120.000000     0.577350    -0.577350     0.577350     0.750000     0.750000    -0.750000
   38    -1.000000   120.000000    -0.577350    -0.577350     0.577350     0.750000     0.750000    -0.750000
   39    -1.000000   180.000000     1.000000     0.000000     0.000000     0.750000     0.750000    -0.750000
   40     1.000000    90.000000     0.000000    -1.000000     0.000000     0.750000     0.750000    -0.750000
   41     1.000000   180.000000     0.707107     0.707107     0.000000     0.750000     0.750000    -0.750000
   42     1.000000    90.000000     1.000000     0.000000     0.000000     0.750000     0.750000    -0.750000
   43    -1.000000   120.000000     0.577350    -0.577350    -0.577350     0.750000     0.750000    -0.750000
   44    -1.000000   180.000000     0.000000     1.000000     0.000000     0.750000     0.750000    -0.750000
   45    -1.000000   120.000000     0.577350     0.577350    -0.577350     0.750000     0.750000    -0.750000
   46     1.000000   180.000000     0.000000    -0.707107     0.707107     0.750000     0.750000    -0.750000
   47     1.000000   180.000000     0.707107    -0.707107     0.000000     0.750000     0.750000    -0.750000
   48     1.000000   180.000000     0.707107     0.000000    -0.707107     0.750000     0.750000    -0.750000
 
 Subroutine IBZKPT returns following result:
 ===========================================
 
 Found    120 irreducible k-points:
 
 Following reciprocal coordinates:
            Coordinates               Weight
  0.000000  0.000000  0.000000      1.000000
  0.066667  0.000000  0.000000      6.000000
  0.133333  0.000000  0.000000      6.000000
  0.200000  0.000000  0.000000      6.000000
  0.266667  0.000000  0.000000      6.000000
  0.333333  0.000000  0.000000      6.000000
  0.400000  0.000000  0.000000      6.000000
  0.466667  0.000000  0.000000      6.000000
  0.066667  0.066667  0.000000     12.000000
  0.133333  0.066667  0.000000     24.000000
  0.200000  0.066667  0.000000     24.000000
  0.266667  0.066667  0.000000     24.000000
  0.333333  0.066667  0.000000     24.000000
  0.400000  0.066667  0.000000     24.000000
  0.466667  0.066667  0.000000     24.000000
  0.133333  0.133333  0.000000     12.000000
  0.200000  0.133333  0.000000     24.000000
  0.266667  0.133333  0.000000     24.000000
  0.333333  0.133333  0.000000     24.000000
  0.400000  0.133333  0.000000     24.000000
  0.466667  0.133333  0.000000     24.000000
  0.200000  0.200000  0.000000     12.000000
  0.266667  0.200000  0.000000     24.000000
  0.333333  0.200000  0.000000     24.000000
  0.400000  0.200000  0.000000     24.000000
  0.466667  0.200000  0.000000     24.000000
  0.266667  0.266667  0.000000     12.000000
  0.333333  0.266667  0.000000     24.000000
  0.400000  0.266667  0.000000     24.000000
  0.466667  0.266667  0.000000     24.000000
  0.333333  0.333333  0.000000     12.000000
  0.400000  0.333333  0.000000     24.000000
  0.466667  0.333333  0.000000     24.000000
  0.400000  0.400000  0.000000     12.000000
  0.466667  0.400000  0.000000     24.000000
  0.466667  0.466667  0.000000     12.000000
  0.066667  0.066667  0.066667      8.000000
  0.133333  0.066667  0.066667     24.000000
  0.200000  0.066667  0.066667     24.000000
  0.266667  0.066667  0.066667     24.000000
  0.333333  0.066667  0.066667     24.000000
  0.400000  0.066667  0.066667     24.000000
  0.466667  0.066667  0.066667     24.000000
  0.133333  0.133333  0.066667     24.000000
  0.200000  0.133333  0.066667     48.000000
  0.266667  0.133333  0.066667     48.000000
  0.333333  0.133333  0.066667     48.000000
  0.400000  0.133333  0.066667     48.000000
  0.466667  0.133333  0.066667     48.000000
  0.200000  0.200000  0.066667     24.000000
  0.266667  0.200000  0.066667     48.000000
  0.333333  0.200000  0.066667     48.000000
  0.400000  0.200000  0.066667     48.000000
  0.466667  0.200000  0.066667     48.000000
  0.266667  0.266667  0.066667     24.000000
  0.333333  0.266667  0.066667     48.000000
  0.400000  0.266667  0.066667     48.000000
  0.466667  0.266667  0.066667     48.000000
  0.333333  0.333333  0.066667     24.000000
  0.400000  0.333333  0.066667     48.000000
  0.466667  0.333333  0.066667     48.000000
  0.400000  0.400000  0.066667     24.000000
  0.466667  0.400000  0.066667     48.000000
  0.466667  0.466667  0.066667     24.000000
  0.133333  0.133333  0.133333      8.000000
  0.200000  0.133333  0.133333     24.000000
  0.266667  0.133333  0.133333     24.000000
  0.333333  0.133333  0.133333     24.000000
  0.400000  0.133333  0.133333     24.000000
  0.466667  0.133333  0.133333     24.000000
  0.200000  0.200000  0.133333     24.000000
  0.266667  0.200000  0.133333     48.000000
  0.333333  0.200000  0.133333     48.000000
  0.400000  0.200000  0.133333     48.000000
  0.466667  0.200000  0.133333     48.000000
  0.266667  0.266667  0.133333     24.000000
  0.333333  0.266667  0.133333     48.000000
  0.400000  0.266667  0.133333     48.000000
  0.466667  0.266667  0.133333     48.000000
  0.333333  0.333333  0.133333     24.000000
  0.400000  0.333333  0.133333     48.000000
  0.466667  0.333333  0.133333     48.000000
  0.400000  0.400000  0.133333     24.000000
  0.466667  0.400000  0.133333     48.000000
  0.466667  0.466667  0.133333     24.000000
  0.200000  0.200000  0.200000      8.000000
  0.266667  0.200000  0.200000     24.000000
  0.333333  0.200000  0.200000     24.000000
  0.400000  0.200000  0.200000     24.000000
  0.466667  0.200000  0.200000     24.000000
  0.266667  0.266667  0.200000     24.000000
  0.333333  0.266667  0.200000     48.000000
  0.400000  0.266667  0.200000     48.000000
  0.466667  0.266667  0.200000     48.000000
  0.333333  0.333333  0.200000     24.000000
  0.400000  0.333333  0.200000     48.000000
  0.466667  0.333333  0.200000     48.000000
  0.400000  0.400000  0.200000     24.000000
  0.466667  0.400000  0.200000     48.000000
  0.466667  0.466667  0.200000     24.000000
  0.266667  0.266667  0.266667      8.000000
  0.333333  0.266667  0.266667     24.000000
  0.400000  0.266667  0.266667     24.000000
  0.466667  0.266667  0.266667     24.000000
  0.333333  0.333333  0.266667     24.000000
  0.400000  0.333333  0.266667     48.000000
  0.466667  0.333333  0.266667     48.000000
  0.400000  0.400000  0.266667     24.000000
  0.466667  0.400000  0.266667     48.000000
  0.466667  0.466667  0.266667     24.000000
  0.333333  0.333333  0.333333      8.000000
  0.400000  0.333333  0.333333     24.000000
  0.466667  0.333333  0.333333     24.000000
  0.400000  0.400000  0.333333     24.000000
  0.466667  0.400000  0.333333     48.000000
  0.466667  0.466667  0.333333     24.000000
  0.400000  0.400000  0.400000      8.000000
  0.466667  0.400000  0.400000     24.000000
  0.466667  0.466667  0.400000     24.000000
  0.466667  0.466667  0.466667      8.000000
 
 Following cartesian coordinates:
            Coordinates               Weight
  0.000000  0.000000  0.000000      1.000000
  0.011568  0.000000  0.000000      6.000000
  0.023137  0.000000  0.000000      6.000000
  0.034705  0.000000  0.000000      6.000000
  0.046273  0.000000  0.000000      6.000000
  0.057842  0.000000  0.000000      6.000000
  0.069410  0.000000  0.000000      6.000000
  0.080978  0.000000  0.000000      6.000000
  0.011568  0.011568  0.000000     12.000000
  0.023137  0.011568  0.000000     24.000000
  0.034705  0.011568  0.000000     24.000000
  0.046273  0.011568  0.000000     24.000000
  0.057842  0.011568  0.000000     24.000000
  0.069410  0.011568  0.000000     24.000000
  0.080978  0.011568  0.000000     24.000000
  0.023137  0.023137  0.000000     12.000000
  0.034705  0.023137  0.000000     24.000000
  0.046273  0.023137  0.000000     24.000000
  0.057842  0.023137  0.000000     24.000000
  0.069410  0.023137  0.000000     24.000000
  0.080978  0.023137  0.000000     24.000000
  0.034705  0.034705  0.000000     12.000000
  0.046273  0.034705  0.000000     24.000000
  0.057842  0.034705  0.000000     24.000000
  0.069410  0.034705  0.000000     24.000000
  0.080978  0.034705  0.000000     24.000000
  0.046273  0.046273  0.000000     12.000000
  0.057842  0.046273  0.000000     24.000000
  0.069410  0.046273  0.000000     24.000000
  0.080978  0.046273  0.000000     24.000000
  0.057842  0.057842  0.000000     12.000000
  0.069410  0.057842  0.000000     24.000000
  0.080978  0.057842  0.000000     24.000000
  0.069410  0.069410  0.000000     12.000000
  0.080978  0.069410  0.000000     24.000000
  0.080978  0.080978  0.000000     12.000000
  0.011568  0.011568  0.011568      8.000000
  0.023137  0.011568  0.011568     24.000000
  0.034705  0.011568  0.011568     24.000000
  0.046273  0.011568  0.011568     24.000000
  0.057842  0.011568  0.011568     24.000000
  0.069410  0.011568  0.011568     24.000000
  0.080978  0.011568  0.011568     24.000000
  0.023137  0.023137  0.011568     24.000000
  0.034705  0.023137  0.011568     48.000000
  0.046273  0.023137  0.011568     48.000000
  0.057842  0.023137  0.011568     48.000000
  0.069410  0.023137  0.011568     48.000000
  0.080978  0.023137  0.011568     48.000000
  0.034705  0.034705  0.011568     24.000000
  0.046273  0.034705  0.011568     48.000000
  0.057842  0.034705  0.011568     48.000000
  0.069410  0.034705  0.011568     48.000000
  0.080978  0.034705  0.011568     48.000000
  0.046273  0.046273  0.011568     24.000000
  0.057842  0.046273  0.011568     48.000000
  0.069410  0.046273  0.011568     48.000000
  0.080978  0.046273  0.011568     48.000000
  0.057842  0.057842  0.011568     24.000000
  0.069410  0.057842  0.011568     48.000000
  0.080978  0.057842  0.011568     48.000000
  0.069410  0.069410  0.011568     24.000000
  0.080978  0.069410  0.011568     48.000000
  0.080978  0.080978  0.011568     24.000000
  0.023137  0.023137  0.023137      8.000000
  0.034705  0.023137  0.023137     24.000000
  0.046273  0.023137  0.023137     24.000000
  0.057842  0.023137  0.023137     24.000000
  0.069410  0.023137  0.023137     24.000000
  0.080978  0.023137  0.023137     24.000000
  0.034705  0.034705  0.023137     24.000000
  0.046273  0.034705  0.023137     48.000000
  0.057842  0.034705  0.023137     48.000000
  0.069410  0.034705  0.023137     48.000000
  0.080978  0.034705  0.023137     48.000000
  0.046273  0.046273  0.023137     24.000000
  0.057842  0.046273  0.023137     48.000000
  0.069410  0.046273  0.023137     48.000000
  0.080978  0.046273  0.023137     48.000000
  0.057842  0.057842  0.023137     24.000000
  0.069410  0.057842  0.023137     48.000000
  0.080978  0.057842  0.023137     48.000000
  0.069410  0.069410  0.023137     24.000000
  0.080978  0.069410  0.023137     48.000000
  0.080978  0.080978  0.023137     24.000000
  0.034705  0.034705  0.034705      8.000000
  0.046273  0.034705  0.034705     24.000000
  0.057842  0.034705  0.034705     24.000000
  0.069410  0.034705  0.034705     24.000000
  0.080978  0.034705  0.034705     24.000000
  0.046273  0.046273  0.034705     24.000000
  0.057842  0.046273  0.034705     48.000000
  0.069410  0.046273  0.034705     48.000000
  0.080978  0.046273  0.034705     48.000000
  0.057842  0.057842  0.034705     24.000000
  0.069410  0.057842  0.034705     48.000000
  0.080978  0.057842  0.034705     48.000000
  0.069410  0.069410  0.034705     24.000000
  0.080978  0.069410  0.034705     48.000000
  0.080978  0.080978  0.034705     24.000000
  0.046273  0.046273  0.046273      8.000000
  0.057842  0.046273  0.046273     24.000000
  0.069410  0.046273  0.046273     24.000000
  0.080978  0.046273  0.046273     24.000000
  0.057842  0.057842  0.046273     24.000000
  0.069410  0.057842  0.046273     48.000000
  0.080978  0.057842  0.046273     48.000000
  0.069410  0.069410  0.046273     24.000000
  0.080978  0.069410  0.046273     48.000000
  0.080978  0.080978  0.046273     24.000000
  0.057842  0.057842  0.057842      8.000000
  0.069410  0.057842  0.057842     24.000000
  0.080978  0.057842  0.057842     24.000000
  0.069410  0.069410  0.057842     24.000000
  0.080978  0.069410  0.057842     48.000000
  0.080978  0.080978  0.057842     24.000000
  0.069410  0.069410  0.069410      8.000000
  0.080978  0.069410  0.069410     24.000000
  0.080978  0.080978  0.069410     24.000000
  0.080978  0.080978  0.080978      8.000000
 


--------------------------------------------------------------------------------------------------------




 Dimension of arrays:
   k-points           NKPTS =    120   k-points in BZ     NKDIM =    120   number of bands    NBANDS=     20
   number of dos      NEDOS =    301   number of ions     NIONS =      8
   non local maximal  LDIM  =      5   non local SUM 2l+1 LMDIM =     13
   total plane-waves  NPLWV =   4096
   max r-space proj   IRMAX =      1   max aug-charges    IRDMAX=   1737
   dimension x,y,z NGX =    16 NGY =   16 NGZ =   16
   dimension x,y,z NGXF=    32 NGYF=   32 NGZF=   32
   support grid    NGXF=    32 NGYF=   32 NGZF=   32
   ions per type =               8
 NGX,Y,Z   is equivalent  to a cutoff of   4.62,  4.62,  4.62 a.u.
 NGXF,Y,Z  is equivalent  to a cutoff of   9.23,  9.23,  9.23 a.u.


 I would recommend the setting:
   dimension x,y,z NGX =    16 NGY =   16 NGZ =   16
 SYSTEM =  unknown system                          
 POSCAR =  MP POSCAR: Ge8                          

 Startparameter for this run:
   NWRITE =      2    write-flag & timer
   PREC   = normal    normal or accurate (medium, high low for compatibility)
   ISTART =      0    job   : 0-new  1-cont  2-samecut
   ICHARG =      2    charge: 1-file 2-atom 10-const
   ISPIN  =      1    spin polarized calculation?
   LNONCOLLINEAR =      F non collinear calculations
   LSORBIT =      F    spin-orbit coupling
   INIWAV =      1    electr: 0-lowe 1-rand  2-diag
   LASPH  =      F    aspherical Exc in radial PAW
   METAGGA=      F    non-selfconsistent MetaGGA calc.

 Electronic Relaxation 1
   ENCUT  =  134.7 eV   9.90 Ry    3.15 a.u.   5.45  5.45  5.45*2*pi/ulx,y,z
   ENINI  =  134.7     initial cutoff
   ENAUG  =  320.3 eV  augmentation charge cutoff
   NELM   =     60;   NELMIN=  2; NELMDL= -5     # of ELM steps 
   EDIFF  = 0.1E-03   stopping-criterion for ELM
   LREAL  =      F    real-space projection
   NLSPLINE    = F    spline interpolate recip. space projectors
   LCOMPAT=      F    compatible to vasp.4.4
   GGA_COMPAT  = T    GGA compatible to vasp.4.4-vasp.4.6
   LMAXPAW     = -100 max onsite density
   LMAXMIX     =    2 max onsite mixed and CHGCAR
   VOSKOWN=      0    Vosko Wilk Nusair interpolation
   ROPT   =    0.00000
 Ionic relaxation
   EDIFFG = 0.1E-02   stopping-criterion for IOM
   NSW    =      0    number of steps for IOM
   NBLOCK =      1;   KBLOCK =      1    inner block; outer block 
   IBRION =     -1    ionic relax: 0-MD 1-quasi-New 2-CG
   NFREE  =      0    steps in history (QN), initial steepest desc. (CG)
   ISIF   =      2    stress and relaxation
   IWAVPR =     10    prediction:  0-non 1-charg 2-wave 3-comb
   ISYM   =      1    0-nonsym 1-usesym 2-fastsym
   LCORR  =      T    Harris-Foulkes like correction to forces

   POTIM  = 0.5000    time-step for ionic-motion
   TEIN   =    0.0    initial temperature
   TEBEG  =    0.0;   TEEND  =   0.0 temperature during run
   SMASS  =  -3.00    Nose mass-parameter (am)
   estimated Nose-frequenzy (Omega)   =  0.10E-29 period in steps =****** mass=  -0.759E-27a.u.
   SCALEE = 1.0000    scale energy and forces
   NPACO  =    256;   APACO  = 16.0  distance and # of slots for P.C.
   PSTRESS=    0.0 pullay stress

  Mass of Ions in am
   POMASS =  69.72
  Ionic Valenz
   ZVAL   =   3.00
  Atomic Wigner-Seitz radii
   RWIGS  =  -1.00
  virtual crystal weights 
   VCA    =   1.00
   NELECT =      24.0000    total number of electrons
   NUPDOWN=      -1.0000    fix difference up-down

 DOS related values:
   EMIN   =  10.00;   EMAX   =-10.00  energy-range for DOS
   EFERMI =   0.00
   ISMEAR =     0;   SIGMA  =   0.20  broadening in eV -4-tet -1-fermi 0-gaus

 Electronic relaxation 2 (details)
   IALGO  =     68    algorithm
   LDIAG  =      T    sub-space diagonalisation (order eigenvalues)
   LSUBROT=      T    optimize rotation matrix (better conditioning)
   TURBO    =      0    0=normal 1=particle mesh
   IRESTART =      0    0=no restart 2=restart with 2 vectors
   NREBOOT  =      0    no. of reboots
   NMIN     =      0    reboot dimension
   EREF     =   0.00    reference energy to select bands
   IMIX   =      4    mixing-type and parameters
     AMIX     =   0.40;   BMIX     =  1.00
     AMIX_MAG =   1.60;   BMIX_MAG =  1.00
     AMIN     =   0.10
     WC   =   100.;   INIMIX=   1;  MIXPRE=   1;  MAXMIX= -45

 Intra band minimization:
   WEIMIN = 0.0000     energy-eigenvalue tresh-hold
   EBREAK =  0.13E-05  absolut break condition
   DEPER  =   0.30     relativ break condition  

   TIME   =   0.40     timestep for ELM

  volume/ion in A,a.u.               =      23.92       161.44
  Fermi-wavevector in a.u.,A,eV,Ry     =   0.819421  1.548481  9.135637  0.671450
  Thomas-Fermi vector in A             =   1.930222
 
 Write flags
   LWAVE  =      F    write WAVECAR
   LCHARG =      F    write CHGCAR
   LVTOT  =      F    write LOCPOT, total local potential
   LVHAR  =      F    write LOCPOT, Hartree potential only
   LELF   =      F    write electronic localiz. function (ELF)
   LORBIT =      0    0 simple, 1 ext, 2 COOP (PROOUT)


 Dipole corrections
   LMONO  =      F    monopole corrections only (constant potential shift)
   LDIPOL =      F    correct potential (dipole corrections)
   IDIPOL =      0    1-x, 2-y, 3-z, 4-all directions 
   EPSILON=  1.0000000 bulk dielectric constant

 Exchange correlation treatment:
   GGA     =    --    GGA type
   LEXCH   =     8    internal setting for exchange type
   VOSKOWN=      0    Vosko Wilk Nusair interpolation
   LHFCALC =     F    Hartree Fock is set to
   LHFONE  =     F    Hartree Fock one center treatment
   AEXX    =    0.0000 exact exchange contribution

 Linear response parameters
   LEPSILON=     F    determine dielectric tensor
   LRPA    =     F    only Hartree local field effects (RPA)
   LNABLA  =     F    use nabla operator in PAW spheres
   LVEL    =     F    velocity operator in full k-point grid
   LINTERFAST=   F  fast interpolation
   KINTER  =     0    interpolate to denser k-point grid
   CSHIFT  =0.1000    complex shift for real part using Kramers Kronig
   OMEGAMAX=  -1.0    maximum frequency
   DEG_THRESHOLD= 0.2000000E-02 threshold for treating states as degnerate
   RTIME   =    0.100 relaxation time in fs

 Orbital magnetization related:
   ORBITALMAG=     F  switch on orbital magnetization
   LCHIMAG   =     F  perturbation theory with respect to B field
   DQ        =  0.001000  dq finite difference perturbation B field



--------------------------------------------------------------------------------------------------------


 Static calculation
 charge density and potential will be updated during run
 non-spin polarized calculation
 RMM-DIIS sequential band-by-band and
  variant of blocked Davidson during initial phase
 perform sub-space diagonalisation
    before iterative eigenvector-optimisation
 modified Broyden-mixing scheme, WC =      100.0
 initial mixing is a Kerker type mixing with AMIX =  0.4000 and BMIX =      1.0000
 Hartree-type preconditioning will be used
 using additional bands            8
 reciprocal scheme for non local part
 use partial core corrections
 calculate Harris-corrections to forces 
   (improved forces if not selfconsistent)
 use gradient corrections 
 use of overlap-Matrix (Vanderbilt PP)
 Gauss-broadening in eV      SIGMA  =   0.20


--------------------------------------------------------------------------------------------------------


  energy-cutoff  :      134.68
  volume of cell :      191.39
      direct lattice vectors                 reciprocal lattice vectors
     5.762863000  0.000000000  0.000000000     0.173524861  0.000000000  0.000000000
     0.000000000  5.762863000  0.000000000     0.000000000  0.173524861  0.000000000
     0.000000000  0.000000000  5.762863000     0.000000000  0.000000000  0.173524861

  length of vectors
     5.762863000  5.762863000  5.762863000     0.173524861  0.173524861  0.173524861


 
 k-points in units of 2pi/SCALE and weight: Automatic kpoint scheme                 
   0.00000000  0.00000000  0.00000000       0.000
   0.01156832  0.00000000  0.00000000       0.002
   0.02313665  0.00000000  0.00000000       0.002
   0.03470497  0.00000000  0.00000000       0.002
   0.04627330  0.00000000  0.00000000       0.002
   0.05784162  0.00000000  0.00000000       0.002
   0.06940994  0.00000000  0.00000000       0.002
   0.08097827  0.00000000  0.00000000       0.002
   0.01156832  0.01156832  0.00000000       0.004
   0.02313665  0.01156832  0.00000000       0.007
   0.03470497  0.01156832  0.00000000       0.007
   0.04627330  0.01156832  0.00000000       0.007
   0.05784162  0.01156832  0.00000000       0.007
   0.06940994  0.01156832  0.00000000       0.007
   0.08097827  0.01156832  0.00000000       0.007
   0.02313665  0.02313665  0.00000000       0.004
   0.03470497  0.02313665  0.00000000       0.007
   0.04627330  0.02313665  0.00000000       0.007
   0.05784162  0.02313665  0.00000000       0.007
   0.06940994  0.02313665  0.00000000       0.007
   0.08097827  0.02313665  0.00000000       0.007
   0.03470497  0.03470497  0.00000000       0.004
   0.04627330  0.03470497  0.00000000       0.007
   0.05784162  0.03470497  0.00000000       0.007
   0.06940994  0.03470497  0.00000000       0.007
   0.08097827  0.03470497  0.00000000       0.007
   0.04627330  0.04627330  0.00000000       0.004
   0.05784162  0.04627330  0.00000000       0.007
   0.06940994  0.04627330  0.00000000       0.007
   0.08097827  0.04627330  0.00000000       0.007
   0.05784162  0.05784162  0.00000000       0.004
   0.06940994  0.05784162  0.00000000       0.007
   0.08097827  0.05784162  0.00000000       0.007
   0.06940994  0.06940994  0.00000000       0.004
   0.08097827  0.06940994  0.00000000       0.007
   0.08097827  0.08097827  0.00000000       0.004
   0.01156832  0.01156832  0.01156832       0.002
   0.02313665  0.01156832  0.01156832       0.007
   0.03470497  0.01156832  0.01156832       0.007
   0.04627330  0.01156832  0.01156832       0.007
   0.05784162  0.01156832  0.01156832       0.007
   0.06940994  0.01156832  0.01156832       0.007
   0.08097827  0.01156832  0.01156832       0.007
   0.02313665  0.02313665  0.01156832       0.007
   0.03470497  0.02313665  0.01156832       0.014
   0.04627330  0.02313665  0.01156832       0.014
   0.05784162  0.02313665  0.01156832       0.014
   0.06940994  0.02313665  0.01156832       0.014
   0.08097827  0.02313665  0.01156832       0.014
   0.03470497  0.03470497  0.01156832       0.007
   0.04627330  0.03470497  0.01156832       0.014
   0.05784162  0.03470497  0.01156832       0.014
   0.06940994  0.03470497  0.01156832       0.014
   0.08097827  0.03470497  0.01156832       0.014
   0.04627330  0.04627330  0.01156832       0.007
   0.05784162  0.04627330  0.01156832       0.014
   0.06940994  0.04627330  0.01156832       0.014
   0.08097827  0.04627330  0.01156832       0.014
   0.05784162  0.05784162  0.01156832       0.007
   0.06940994  0.05784162  0.01156832       0.014
   0.08097827  0.05784162  0.01156832       0.014
   0.06940994  0.06940994  0.01156832       0.007
   0.08097827  0.06940994  0.01156832       0.014
   0.08097827  0.08097827  0.01156832       0.007
   0.02313665  0.02313665  0.02313665       0.002
   0.03470497  0.02313665  0.02313665       0.007
   0.04627330  0.02313665  0.02313665       0.007
   0.05784162  0.02313665  0.02313665       0.007
   0.06940994  0.02313665  0.02313665       0.007
   0.08097827  0.02313665  0.02313665       0.007
   0.03470497  0.03470497  0.02313665       0.007
   0.04627330  0.03470497  0.02313665       0.014
   0.05784162  0.03470497  0.02313665       0.014
   0.06940994  0.03470497  0.02313665       0.014
   0.08097827  0.03470497  0.02313665       0.014
   0.04627330  0.04627330  0.02313665       0.007
[...]

 k-point 107 :       0.4667    0.3333    0.2667
  band No.  band energies     occupation 
      1      -7.2844      2.00000
      2      -7.0458      2.00000
      3      -6.3291      2.00000
      4      -6.2619      2.00000
      5      -3.8465      2.00000
      6      -3.7723      2.00000
      7      -2.9486      2.00000
      8      -2.6585      2.00000
      9       0.0212      2.00000
     10       0.1042      2.00000
     11       1.0913      0.01679
     12       1.4007      0.00000
     13       1.4278      0.00000
     14       1.5095      0.00000
     15       1.7572      0.00000
     16       2.0580      0.00000
     17       4.8999      0.00000
     18       5.0744      0.00000
     19       5.3150      0.00000
     20       5.5627      0.00000

 k-point 108 :       0.4000    0.4000    0.2667
  band No.  band energies     occupation 
      1      -7.3215      2.00000
      2      -6.6595      2.00000
      3      -6.6595      2.00000
      4      -6.2992      2.00000
      5      -3.8575      2.00000
      6      -3.4540      2.00000
      7      -3.4540      2.00000
      8      -2.6710      2.00000
      9       0.1007      2.00000
     10       0.5626      1.82193
     11       0.5626      1.82193
     12       1.5844      0.00000
     13       1.6089      0.00000
     14       1.6186      0.00000
     15       1.6186      0.00000
     16       2.4033      0.00000
     17       4.6194      0.00000
     18       4.9539      0.00000
     19       5.2641      0.00000
     20       5.2641      0.00000

 k-point 109 :       0.4667    0.4000    0.2667
  band No.  band energies     occupation 
      1      -7.1202      2.00000
      2      -6.8975      2.00000
      3      -6.5287      2.00000
      4      -6.4043      2.00000
      5      -3.7930      2.00000
      6      -3.6546      2.00000
      7      -3.2339      2.00000
      8      -2.9714      2.00000
      9       0.2808      1.99916
     10       0.4407      1.97281
     11       0.9450      0.17468
     12       1.2830      0.00018
     13       1.6965      0.00000
     14       1.7040      0.00000
     15       1.9208      0.00000
     16       2.2156      0.00000
     17       4.8348      0.00000
     18       5.1084      0.00000
     19       5.1164      0.00000
     20       5.3243      0.00000

 k-point 110 :       0.4667    0.4667    0.2667
  band No.  band energies     occupation 
      1      -6.9349      2.00000
      2      -6.7348      2.00000
      3      -6.7348      2.00000
      4      -6.5663      2.00000
      5      -3.6663      2.00000
      6      -3.4766      2.00000
      7      -3.4766      2.00000
      8      -3.2464      2.00000
      9       0.5227      1.89673
     10       0.7465      1.03709
     11       0.7465      1.03709
     12       1.0264      0.05327
     13       1.9088      0.00000
     14       1.9843      0.00000
     15       1.9843      0.00000
     16       2.1843      0.00000
     17       4.8880      0.00000
     18       5.0382      0.00000
     19       5.0671      0.00000
     20       5.0671      0.00000

 k-point 111 :       0.3333    0.3333    0.3333
  band No.  band energies     occupation 
      1      -7.5336      2.00000
      2      -6.4505      2.00000
      3      -6.4505      2.00000
      4      -6.4505      2.00000
      5      -3.6417      2.00000
      6      -3.6417      2.00000
      7      -3.6417      2.00000
      8      -2.3509      2.00000
      9       0.2939      1.99883
     10       0.2939      1.99883
     11       0.2939      1.99883
     12       1.4525      0.00000
     13       1.4525      0.00000
     14       1.4525      0.00000
     15       2.3616      0.00000
     16       2.3616      0.00000
     17       4.1958      0.00000
     18       4.8757      0.00000
     19       4.8757      0.00000
     20       4.8757      0.00000

 k-point 112 :       0.4000    0.3333    0.3333
  band No.  band energies     occupation 
      1      -7.3576      2.00000
      2      -6.6945      2.00000
      3      -6.4003      2.00000
      4      -6.4003      2.00000
      5      -3.8007      2.00000
      6      -3.8007      2.00000
      7      -3.4710      2.00000
      8      -2.6874      2.00000
      9       0.4104      1.98460
     10       0.4104      1.98460
     11       0.8240      0.61606
     12       1.5497      0.00000
     13       1.5497      0.00000
     14       1.6096      0.00000
     15       2.1704      0.00000
     16       2.2360      0.00000
     17       4.3073      0.00000
     18       4.9681      0.00000
     19       5.0353      0.00000
     20       5.0353      0.00000

 k-point 113 :       0.4667    0.3333    0.3333
  band No.  band energies     occupation 
      1      -7.1559      2.00000
      2      -6.9328      2.00000
      3      -6.3712      2.00000
      4      -6.3712      2.00000
      5      -3.8858      2.00000
      6      -3.8858      2.00000
      7      -3.2522      2.00000
      8      -2.9895      2.00000
      9       0.4731      1.95223
     10       0.4731      1.95223
     11       1.3546      0.00002
     12       1.5922      0.00000
     13       1.5922      0.00000
     14       1.7857      0.00000
     15       1.8493      0.00000
     16       1.9752      0.00000
     17       4.6180      0.00000
     18       4.8940      0.00000
     19       5.2653      0.00000
     20       5.2653      0.00000

 k-point 114 :       0.4000    0.4000    0.3333
  band No.  band energies     occupation 
      1      -7.1928      2.00000
      2      -6.5997      2.00000
      3      -6.5997      2.00000
      4      -6.4078      2.00000
      5      -3.9015      2.00000
      6      -3.6891      2.00000
      7      -3.6891      2.00000
      8      -3.0060      2.00000
      9       0.6274      1.62593
     10       0.9115      0.26249
     11       0.9115      0.26249
     12       1.7127      0.00000
     13       1.7193      0.00000
     14       1.7193      0.00000
     15       1.9992      0.00000
     16       2.3129      0.00000
     17       4.2512      0.00000
     18       4.9676      0.00000
     19       5.0045      0.00000
     20       5.0045      0.00000

 k-point 115 :       0.4667    0.4000    0.3333
  band No.  band energies     occupation 
      1      -7.0068      2.00000
      2      -6.8060      2.00000
      3      -6.5125      2.00000
      4      -6.4455      2.00000
      5      -3.9160      2.00000
      6      -3.8423      2.00000
      7      -3.5138      2.00000
      8      -3.2837      2.00000
      9       0.7906      0.79057
     10       0.8917      0.32684
     11       1.3720      0.00001
     12       1.7375      0.00000
     13       1.7954      0.00000
     14       1.8000      0.00000
     15       1.9246      0.00000
     16       2.1588      0.00000
     17       4.4651      0.00000
     18       4.7807      0.00000
     19       5.0025      0.00000
     20       5.0427      0.00000

 k-point 116 :       0.4667    0.4667    0.3333
  band No.  band energies     occupation 
      1      -6.8433      2.00000
      2      -6.6745      2.00000
      3      -6.6745      2.00000
      4      -6.5500      2.00000
      5      -3.8585      2.00000
      6      -3.7203      2.00000
      7      -3.7203      2.00000
      8      -3.5304      2.00000
      9       1.0474      0.03740
     10       1.2447      0.00051
     11       1.2447      0.00051
     12       1.5224      0.00000
     13       1.9660      0.00000
     14       2.0165      0.00000
     15       2.0165      0.00000
     16       2.1765      0.00000
     17       4.5176      0.00000
     18       4.7483      0.00000
     19       4.7483      0.00000
     20       4.8214      0.00000

 k-point 117 :       0.4000    0.4000    0.4000
  band No.  band energies     occupation 
      1      -7.0433      2.00000
      2      -6.5489      2.00000
      3      -6.5489      2.00000
      4      -6.5489      2.00000
      5      -3.8611      2.00000
      6      -3.8611      2.00000
      7      -3.8611      2.00000
      8      -3.3021      2.00000
      9       1.1589      0.00411
     10       1.1589      0.00411
     11       1.1589      0.00411
     12       1.8299      0.00000
     13       1.8299      0.00000
     14       1.8299      0.00000
     15       2.2051      0.00000
     16       2.2051      0.00000
     17       4.0652      0.00000
     18       4.8227      0.00000
     19       4.8227      0.00000
     20       4.8227      0.00000

 k-point 118 :       0.4667    0.4000    0.4000
  band No.  band energies     occupation 
      1      -6.8796      2.00000
      2      -6.7108      2.00000
      3      -6.5193      2.00000
      4      -6.5193      2.00000
      5      -3.9522      2.00000
      6      -3.9522      2.00000
      7      -3.7405      2.00000
      8      -3.5508      2.00000
      9       1.2797      0.00020
     10       1.2797      0.00020
     11       1.6610      0.00000
     12       1.9127      0.00000
     13       1.9127      0.00000
     14       1.9569      0.00000
     15       2.0592      0.00000
     16       2.0838      0.00000
     17       4.1942      0.00000
     18       4.5165      0.00000
     19       4.7299      0.00000
     20       4.7299      0.00000

 k-point 119 :       0.4667    0.4667    0.4000
  band No.  band energies     occupation 
      1      -6.7480      2.00000
      2      -6.6235      2.00000
      3      -6.6235      2.00000
      4      -6.5567      2.00000
      5      -3.9714      2.00000
      6      -3.8979      2.00000
      7      -3.8979      2.00000
      8      -3.7601      2.00000
      9       1.5494      0.00000
     10       1.6862      0.00000
     11       1.6862      0.00000
     12       1.9369      0.00000
     13       2.0253      0.00000
     14       2.0450      0.00000
     15       2.0450      0.00000
     16       2.1576      0.00000
     17       4.1662      0.00000
     18       4.3977      0.00000
     19       4.3977      0.00000
     20       4.4831      0.00000

 k-point 120 :       0.4667    0.4667    0.4667
  band No.  band energies     occupation 
      1      -6.6606      2.00000
      2      -6.5938      2.00000
      3      -6.5938      2.00000
      4      -6.5938      2.00000
      5      -3.9918      2.00000
      6      -3.9918      2.00000
      7      -3.9918      2.00000
      8      -3.9184      2.00000
      9       1.9584      0.00000
     10       1.9584      0.00000
     11       1.9584      0.00000
     12       2.0798      0.00000
     13       2.0798      0.00000
     14       2.0798      0.00000
     15       2.1249      0.00000
     16       2.1249      0.00000
     17       3.9998      0.00000
     18       4.1473      0.00000
     19       4.1473      0.00000
     20       4.1473      0.00000


--------------------------------------------------------------------------------------------------------


 soft charge-density along one line, spin component           1
         0         1         2         3         4         5         6         7         8         9
 total charge-density along one line
 
 pseudopotential strength for first ion, spin component:           1
  6.213   0.144  -0.000  -0.000   0.000  -0.000  -0.000   0.000
  0.144  -0.015  -0.000  -0.000   0.000  -0.000  -0.000   0.000
 -0.000  -0.000   1.352  -0.000   0.000  -0.009  -0.000   0.000
 -0.000  -0.000  -0.000   1.352  -0.000  -0.000  -0.009  -0.000
  0.000   0.000   0.000  -0.000   1.352   0.000  -0.000  -0.009
 -0.000  -0.000  -0.009  -0.000   0.000   0.012  -0.000   0.000
 -0.000  -0.000  -0.000  -0.009  -0.000  -0.000   0.012  -0.000
  0.000   0.000   0.000  -0.000  -0.009   0.000  -0.000   0.012
  0.000   0.000   0.000  -0.006   0.000   0.000  -0.000   0.000
 -0.000  -0.000  -0.000   0.000  -0.006  -0.000   0.000  -0.000
  0.000   0.000   0.000  -0.000  -0.000   0.000  -0.000  -0.000
 -0.000  -0.000  -0.006   0.000  -0.000  -0.000   0.000  -0.000
  0.000   0.000   0.000   0.000   0.000   0.000   0.000   0.000
 total augmentation occupancy for first ion, spin component:           1
  1.708  -0.382  -0.000   0.000   0.000  -0.000  -0.000   0.000   0.000  -0.000   0.000  -0.000   0.000
 -0.382   0.262   0.000  -0.000   0.000   0.000   0.000   0.000   0.000   0.000   0.000   0.000  -0.000
 -0.000   0.000   0.872  -0.000   0.000  -0.334   0.000  -0.000   0.000   0.000   0.000  -0.092   0.000
  0.000  -0.000  -0.000   0.872  -0.000  -0.000  -0.334   0.000  -0.092   0.000  -0.000   0.000  -0.000
 -0.000   0.000  -0.000  -0.000   0.872   0.000  -0.000  -0.334   0.000  -0.092  -0.000  -0.000  -0.000
  0.000   0.000  -0.334   0.000   0.000   0.149  -0.000  -0.000   0.000   0.000  -0.000   0.042   0.000
  0.000   0.000   0.000  -0.334  -0.000  -0.000   0.149  -0.000   0.042  -0.000   0.000  -0.000  -0.000
 -0.000   0.000   0.000  -0.000  -0.334   0.000  -0.000   0.149  -0.000   0.042   0.000   0.000  -0.000
  0.000   0.000   0.000  -0.092   0.000  -0.000   0.042  -0.000   0.023   0.000  -0.000  -0.000   0.000
  0.000   0.000   0.000   0.000  -0.092  -0.000  -0.000   0.042   0.000   0.023  -0.000  -0.000   0.000
 -0.000   0.000   0.000  -0.000   0.000   0.000   0.000   0.000   0.000   0.000   0.009   0.000   0.000
 -0.000   0.000  -0.092   0.000  -0.000   0.042  -0.000   0.000  -0.000   0.000   0.000   0.023   0.000
  0.000  -0.000  -0.000  -0.000   0.000  -0.000  -0.000  -0.000  -0.000  -0.000   0.000   0.000   0.009


------------------------ aborting loop because EDIFF is reached ----------------------------------------


    CHARGE:  cpu time    0.01: real time    0.02
    FORLOC:  cpu time    0.00: real time    0.00
    FORNL :  cpu time    0.10: real time    0.10
    STRESS:  cpu time    0.47: real time    0.47
    FORCOR:  cpu time    0.00: real time    0.00
    FORHAR:  cpu time    0.00: real time    0.00
    MIXING:  cpu time    0.00: real time    0.00

  FORCE on cell =-STRESS in cart. coord.  units (eV):
  Direction    XX          YY          ZZ          XY          YZ          ZX
  --------------------------------------------------------------------------------------
  Alpha Z    59.64983    59.64983    59.64983
  Ewald    -161.52155  -161.52155  -161.52155    -0.00000     0.00000    -0.00000
  Hartree     8.08258     8.08258     8.08258    -0.00000    -0.00000    -0.00000
  E(xc)     -85.71362   -85.71362   -85.71362    -0.00000     0.00000     0.00000
  Local     -27.11742   -27.11742   -27.11742    -0.00000     0.00000     0.00000
  n-local    37.65358    37.53730    37.15645     0.54789     0.92123     0.67677
  augment    29.89134    29.89134    29.89134     0.00000     0.00000     0.00000
  Kinetic   134.44499   136.97279   155.88289     2.01222     8.01109     3.39295
  Fock        0.00000     0.00000     0.00000     0.00000     0.00000     0.00000
  -------------------------------------------------------------------------------------
  Total       3.15381     3.15381     3.15381     0.00000     0.00000    -0.00000
  in kB      26.40169    26.40169    26.40169     0.00000     0.00000    -0.00000
  external pressure =       26.40 kB  Pullay stress =        0.00 kB


 VOLUME and BASIS-vectors are now :
 -----------------------------------------------------------------------------
  energy-cutoff  :      134.68
  volume of cell :      191.39
      direct lattice vectors                 reciprocal lattice vectors
     5.762863000  0.000000000  0.000000000     0.173524861  0.000000000  0.000000000
     0.000000000  5.762863000  0.000000000     0.000000000  0.173524861  0.000000000
     0.000000000  0.000000000  5.762863000     0.000000000  0.000000000  0.173524861

  length of vectors
     5.762863000  5.762863000  5.762863000     0.173524861  0.173524861  0.173524861


 FORCES acting on ions
    electron-ion (+dipol)            ewald-force                    non-local-force                 convergence-correction
 -----------------------------------------------------------------------------------------------
   0.801E-14 0.878E-14 -.590E-14   -.355E-14 0.000E+00 -.178E-14   -.108E-17 -.651E-18 0.217E-17   -.157E-15 -.250E-14 -.516E-14
   -.123E-14 -.281E-14 -.952E-13   0.388E-14 -.205E-14 -.355E-14   -.239E-17 -.304E-17 -.520E-17   -.953E-16 0.133E-14 0.245E-14
   0.432E-14 -.794E-13 0.514E-14   -.355E-14 0.000E+00 -.178E-14   0.217E-17 0.911E-17 -.108E-17   -.458E-15 0.155E-14 0.533E-14
   0.111E-13 0.781E-13 -.539E-14   0.362E-14 -.178E-14 -.369E-14   0.651E-18 -.542E-17 -.455E-17   -.485E-16 0.116E-14 -.174E-14
   0.555E-14 -.327E-13 -.100E-14   -.178E-14 0.178E-14 0.355E-14   0.434E-18 0.434E-17 0.455E-17   0.916E-15 -.254E-14 0.474E-14
   -.123E-14 0.160E-14 0.152E-14   0.357E-14 0.219E-15 0.164E-14   0.932E-17 -.108E-17 -.629E-17   0.420E-15 0.112E-14 -.205E-14
   0.432E-14 -.341E-13 0.181E-14   -.355E-14 0.178E-14 0.355E-14   0.651E-18 0.976E-17 0.911E-17   0.985E-15 0.247E-14 -.458E-14
   -.616E-15 0.558E-14 -.227E-14   0.177E-14 0.866E-17 0.175E-14   -.629E-17 -.867E-17 0.000E+00   0.147E-14 0.131E-14 0.191E-14
 -----------------------------------------------------------------------------------------------
   0.302E-13 -.549E-13 -.101E-12   0.404E-15 -.435E-16 -.286E-15   0.347E-17 0.434E-17 -.130E-17   0.303E-14 0.391E-14 0.912E-15
 
 
 POSITION                                       TOTAL-FORCE (eV/Angst)
 -----------------------------------------------------------------------------------
      4.32215      4.32215      4.32215        -0.000000      0.000000     -0.000000
      2.88143      0.00000      0.00000         0.000000      0.000000      0.000000
      4.32215      1.44072      1.44072         0.000000     -0.000000      0.000000
      2.88143      2.88143      2.88143        -0.000000      0.000000      0.000000
      1.44072      4.32215      1.44072        -0.000000     -0.000000      0.000000
      0.00000      0.00000      2.88143        -0.000000     -0.000000      0.000000
      1.44072      1.44072      4.32215         0.000000     -0.000000     -0.000000
      0.00000      2.88143      0.00000        -0.000000      0.000000     -0.000000
 -----------------------------------------------------------------------------------
    total drift:                                0.000000     -0.000000     -0.000000


--------------------------------------------------------------------------------------------------------



  FREE ENERGIE OF THE ION-ELECTRON SYSTEM (eV)
  ---------------------------------------------------
  free  energy   TOTEN  =       -20.89066152 eV

  energy  without entropy=      -20.79041071  energy(sigma->0) =      -20.84053612
 


--------------------------------------------------------------------------------------------------------


    POTLOK:  cpu time    0.02: real time    0.02


--------------------------------------------------------------------------------------------------------


     LOOP+:  cpu time    5.96: real time    6.03
    4ORBIT:  cpu time    0.00: real time    0.00

 total amount of memory used by VASP on root node    41112. kBytes
========================================================================

   base      :      30000. kBytes
   nonl-proj :       9077. kBytes
   fftplans  :         89. kBytes
   grid      :        270. kBytes
   one-center:         64. kBytes
   wavefun   :       1612. kBytes
 
  
  
 General timing and accounting informations for this job:
 ========================================================
  
                  Total CPU time used (sec):        8.183
                            User time (sec):        8.002
                          System time (sec):        0.181
                         Elapsed time (sec):        8.598
  
                   Maximum memory used (kb):       73588.
                   Average memory used (kb):           0.
  
                          Minor page faults:        11726
                          Major page faults:            0
                 Voluntary context switches:         6533
