<?xml version="1.0" encoding="ISO-8859-1"?>
<modeling>
 <generator>
  <i name="program" type="string">vasp </i>
  <i name="version" type="string">5.3.3  </i>
  <i name="subversion" type="string">18Dez12 (build Dec 13 2014 13:36:02) complex                          parallel </i>
  <i name="platform" type="string">LinuxIFC </i>
  <i name="date" type="string">2018 11 27 </i>
  <i name="time" type="string">23:29:30 </i>
 </generator>
 <incar>
  <i type="string" name="PREC">normal</i>
  <i type="string" name="ALGO"> Fast</i>
  <i type="int" name="ISPIN">     1</i>
  <i type="int" name="IBRION">    -1</i>
  <i type="int" name="NSW">     0</i>
  <i type="int" name="ISYM">     1</i>
  <i type="int" name="ISMEAR">     0</i>
  <i name="SIGMA">      0.20000000</i>
  <i type="logical" name="LWAVE"> F  </i>
  <i type="logical" name="LCHARG"> F  </i>
 </incar>
 <kpoints>
  <generation param="Monkhorst-Pack">
   <v type="int" name="divisions">      15       15       15 </v>
   <v name="usershift">      0.00000000       0.00000000       0.00000000 </v>
   <v name="genvec1">      0.06666667       0.00000000       0.00000000 </v>
   <v name="genvec2">      0.00000000       0.06666667       0.00000000 </v>
   <v name="genvec3">      0.00000000       0.00000000       0.06666667 </v>
   <v name="shift">      0.00000000       0.00000000       0.00000000 </v>
  </generation>
  <varray name="kpointlist" >
   <v>       0.00000000       0.00000000       0.00000000 </v>
   <v>       0.06666667       0.00000000       0.00000000 </v>
   <v>       0.13333333       0.00000000       0.00000000 </v>
   <v>       0.20000000       0.00000000       0.00000000 </v>
   <v>       0.26666667       0.00000000       0.00000000 </v>
   <v>       0.33333333       0.00000000       0.00000000 </v>
   <v>       0.40000000       0.00000000       0.00000000 </v>
   <v>       0.46666667       0.00000000       0.00000000 </v>
   <v>       0.06666667       0.06666667       0.00000000 </v>
   <v>       0.13333333       0.06666667       0.00000000 </v>
   <v>       0.20000000       0.06666667       0.00000000 </v>
   <v>       0.26666667       0.06666667       0.00000000 </v>
   <v>       0.33333333       0.06666667       0.00000000 </v>
   <v>       0.40000000       0.06666667       0.00000000 </v>
   <v>       0.46666667       0.06666667       0.00000000 </v>
   <v>       0.13333333       0.13333333       0.00000000 </v>
   <v>       0.20000000       0.13333333       0.00000000 </v>
   <v>       0.26666667       0.13333333       0.00000000 </v>
   <v>       0.33333333       0.13333333       0.00000000 </v>
   <v>       0.40000000       0.13333333       0.00000000 </v>
   <v>       0.46666667       0.13333333       0.00000000 </v>
   <v>       0.20000000       0.20000000       0.00000000 </v>
   <v>       0.26666667       0.20000000       0.00000000 </v>
   <v>       0.33333333       0.20000000       0.00000000 </v>
   <v>       0.40000000       0.20000000       0.00000000 </v>
   <v>       0.46666667       0.20000000       0.00000000 </v>
   <v>       0.26666667       0.26666667       0.00000000 </v>
   <v>       0.33333333       0.26666667       0.00000000 </v>
   <v>       0.40000000       0.26666667       0.00000000 </v>
   <v>       0.46666667       0.26666667       0.00000000 </v>
   <v>       0.33333333       0.33333333       0.00000000 </v>
   <v>       0.40000000       0.33333333       0.00000000 </v>
   <v>       0.46666667       0.33333333       0.00000000 </v>
   <v>       0.40000000       0.40000000       0.00000000 </v>
   <v>       0.46666667       0.40000000       0.00000000 </v>
   <v>       0.46666667       0.46666667       0.00000000 </v>
   <v>       0.06666667       0.06666667       0.06666667 </v>
   <v>       0.13333333       0.06666667       0.06666667 </v>
   <v>       0.20000000       0.06666667       0.06666667 </v>
   <v>       0.26666667       0.06666667       0.06666667 </v>
   <v>       0.33333333       0.06666667       0.06666667 </v>
   <v>       0.40000000       0.06666667       0.06666667 </v>
   <v>       0.46666667       0.06666667       0.06666667 </v>
   <v>       0.13333333       0.13333333       0.06666667 </v>
   <v>       0.20000000       0.13333333       0.06666667 </v>
   <v>       0.26666667       0.13333333       0.06666667 </v>
   <v>       0.33333333       0.13333333       0.06666667 </v>
   <v>       0.40000000       0.13333333       0.06666667 </v>
   <v>       0.46666667       0.13333333       0.06666667 </v>
   <v>       0.20000000       0.20000000       0.06666667 </v>
   <v>       0.26666667       0.20000000       0.06666667 </v>
   <v>       0.33333333       0.20000000       0.06666667 </v>
   <v>       0.40000000       0.20000000       0.06666667 </v>
   <v>       0.46666667       0.20000000       0.06666667 </v>
   <v>       0.26666667       0.26666667       0.06666667 </v>
   <v>       0.33333333       0.26666667       0.06666667 </v>
   <v>       0.40000000       0.26666667       0.06666667 </v>
   <v>       0.46666667       0.26666667       0.06666667 </v>
   <v>       0.33333333       0.33333333       0.06666667 </v>
   <v>       0.40000000       0.33333333       0.06666667 </v>
   <v>       0.46666667       0.33333333       0.06666667 </v>
   <v>       0.40000000       0.40000000       0.06666667 </v>
   <v>       0.46666667       0.40000000       0.06666667 </v>
   <v>       0.46666667       0.46666667       0.06666667 </v>
   <v>       0.13333333       0.13333333       0.13333333 </v>
   <v>       0.20000000       0.13333333       0.13333333 </v>
   <v>       0.26666667       0.13333333       0.13333333 </v>
   <v>       0.33333333       0.13333333       0.13333333 </v>
   <v>       0.40000000       0.13333333       0.13333333 </v>
   <v>       0.46666667       0.13333333       0.13333333 </v>
   <v>       0.20000000       0.20000000       0.13333333 </v>
   <v>       0.26666667       0.20000000       0.13333333 </v>
   <v>       0.33333333       0.20000000       0.13333333 </v>
   <v>       0.40000000       0.20000000       0.13333333 </v>
   <v>       0.46666667       0.20000000       0.13333333 </v>
   <v>       0.26666667       0.26666667       0.13333333 </v>
   <v>       0.33333333       0.26666667       0.13333333 </v>
   <v>       0.40000000       0.26666667       0.13333333 </v>
   <v>       0.46666667       0.26666667       0.13333333 </v>
   <v>       0.33333333       0.33333333       0.13333333 </v>
   <v>       0.40000000       0.33333333       0.13333333 </v>
   <v>       0.46666667       0.33333333       0.13333333 </v>
   <v>       0.40000000       0.40000000       0.13333333 </v>
   <v>       0.46666667       0.40000000       0.13333333 </v>
   <v>       0.46666667       0.46666667       0.13333333 </v>
   <v>       0.20000000       0.20000000       0.20000000 </v>
   <v>       0.26666667       0.20000000       0.20000000 </v>
   <v>       0.33333333       0.20000000       0.20000000 </v>
   <v>       0.40000000       0.20000000       0.20000000 </v>
   <v>       0.46666667       0.20000000       0.20000000 </v>
   <v>       0.26666667       0.26666667       0.20000000 </v>
   <v>       0.33333333       0.26666667       0.20000000 </v>
   <v>       0.40000000       0.26666667       0.20000000 </v>
   <v>       0.46666667       0.26666667       0.20000000 </v>
   <v>       0.33333333       0.33333333       0.20000000 </v>
   <v>       0.40000000       0.33333333       0.20000000 </v>
   <v>       0.46666667       0.33333333       0.20000000 </v>
   <v>       0.40000000       0.40000000       0.20000000 </v>
   <v>       0.46666667       0.40000000       0.20000000 </v>
   <v>       0.46666667       0.46666667       0.20000000 </v>
   <v>       0.26666667       0.26666667       0.26666667 </v>
   <v>       0.33333333       0.26666667       0.26666667 </v>
   <v>       0.40000000       0.26666667       0.26666667 </v>
   <v>       0.46666667       0.26666667       0.26666667 </v>
   <v>       0.33333333       0.33333333       0.26666667 </v>
   <v>       0.40000000       0.33333333       0.26666667 </v>
   <v>       0.46666667       0.33333333       0.26666667 </v>
   <v>       0.40000000       0.40000000       0.26666667 </v>
   <v>       0.46666667       0.40000000       0.26666667 </v>
   <v>       0.46666667       0.46666667       0.26666667 </v>
   <v>       0.33333333       0.33333333       0.33333333 </v>
   <v>       0.40000000       0.33333333       0.33333333 </v>
   <v>       0.46666667       0.33333333       0.33333333 </v>
   <v>       0.40000000       0.40000000       0.33333333 </v>
   <v>       0.46666667       0.40000000       0.33333333 </v>
   <v>       0.46666667       0.46666667       0.33333333 </v>
   <v>       0.40000000       0.40000000       0.40000000 </v>
   <v>       0.46666667       0.40000000       0.40000000 </v>
   <v>       0.46666667       0.46666667       0.40000000 </v>
   <v>       0.46666667       0.46666667       0.46666667 </v>
  </varray>
  <varray name="weights" >
   <v>       0.00029630 </v>
   <v>       0.00177778 </v>
   <v>       0.00177778 </v>
   <v>       0.00177778 </v>
   <v>       0.00177778 </v>
   <v>       0.00177778 </v>
   <v>       0.00177778 </v>
   <v>       0.00177778 </v>
   <v>       0.00355556 </v>
   <v>       0.00711111 </v>
   <v>       0.00711111 </v>
   <v>       0.00711111 </v>
   <v>       0.00711111 </v>
   <v>       0.00711111 </v>
   <v>       0.00711111 </v>
   <v>       0.00355556 </v>
   <v>       0.00711111 </v>
   <v>       0.00711111 </v>
   <v>       0.00711111 </v>
   <v>       0.00711111 </v>
   <v>       0.00711111 </v>
   <v>       0.00355556 </v>
   <v>       0.00711111 </v>
   <v>       0.00711111 </v>
   <v>       0.00711111 </v>
   <v>       0.00711111 </v>
   <v>       0.00355556 </v>
   <v>       0.00711111 </v>
   <v>       0.00711111 </v>
   <v>       0.00711111 </v>
   <v>       0.00355556 </v>
   <v>       0.00711111 </v>
   <v>       0.00711111 </v>
   <v>       0.00355556 </v>
   <v>       0.00711111 </v>
   <v>       0.00355556 </v>
   <v>       0.00237037 </v>
   <v>       0.00711111 </v>
   <v>       0.00711111 </v>
   <v>       0.00711111 </v>
   <v>       0.00711111 </v>
   <v>       0.00711111 </v>
   <v>       0.00711111 </v>
   <v>       0.00711111 </v>
   <v>       0.01422222 </v>
   <v>       0.01422222 </v>
   <v>       0.01422222 </v>
   <v>       0.01422222 </v>
   <v>       0.01422222 </v>
   <v>       0.00711111 </v>
   <v>       0.01422222 </v>
   <v>       0.01422222 </v>
   <v>       0.01422222 </v>
   <v>       0.01422222 </v>
   <v>       0.00711111 </v>
   <v>       0.01422222 </v>
   <v>       0.01422222 </v>
   <v>       0.01422222 </v>
   <v>       0.00711111 </v>
   <v>       0.01422222 </v>
   <v>       0.01422222 </v>
   <v>       0.00711111 </v>
   <v>       0.01422222 </v>
   <v>       0.00711111 </v>
   <v>       0.00237037 </v>
   <v>       0.00711111 </v>
   <v>       0.00711111 </v>
   <v>       0.00711111 </v>
   <v>       0.00711111 </v>
   <v>       0.00711111 </v>
   <v>       0.00711111 </v>
   <v>       0.01422222 </v>
   <v>       0.01422222 </v>
   <v>       0.01422222 </v>
   <v>       0.01422222 </v>
   <v>       0.00711111 </v>
   <v>       0.01422222 </v>
   <v>       0.01422222 </v>
   <v>       0.01422222 </v>
   <v>       0.00711111 </v>
   <v>       0.01422222 </v>
   <v>       0.01422222 </v>
   <v>       0.00711111 </v>
   <v>       0.01422222 </v>
   <v>       0.00711111 </v>
   <v>       0.00237037 </v>
   <v>       0.00711111 </v>
   <v>       0.00711111 </v>
   <v>       0.00711111 </v>
   <v>       0.00711111 </v>
   <v>       0.00711111 </v>
   <v>       0.01422222 </v>
   <v>       0.01422222 </v>
   <v>       0.01422222 </v>
   <v>       0.00711111 </v>
   <v>       0.01422222 </v>
   <v>       0.01422222 </v>
   <v>       0.00711111 </v>
   <v>       0.01422222 </v>
   <v>       0.00711111 </v>
   <v>       0.00237037 </v>
   <v>       0.00711111 </v>
   <v>       0.00711111 </v>
   <v>       0.00711111 </v>
   <v>       0.00711111 </v>
   <v>       0.01422222 </v>
   <v>       0.01422222 </v>
   <v>       0.00711111 </v>
   <v>       0.01422222 </v>
   <v>       0.00711111 </v>
   <v>       0.00237037 </v>
   <v>       0.00711111 </v>
   <v>       0.00711111 </v>
   <v>       0.00711111 </v>
   <v>       0.01422222 </v>
   <v>       0.00711111 </v>
   <v>       0.00237037 </v>
   <v>       0.00711111 </v>
   <v>       0.00711111 </v>
   <v>       0.00237037 </v>
  </varray>
 </kpoints>
 <parameters>
  <separator name="general" >
   <i type="string" name="SYSTEM">unknown system</i>
   <i type="logical" name="LCOMPAT"> F  </i>
  </separator>
  <separator name="electronic" >
   <i type="string" name="PREC">normal</i>
   <i name="ENMAX">    134.67800000</i>
   <i name="ENAUG">    320.26400000</i>
   <i name="EDIFF">      0.00010000</i>
   <i type="int" name="IALGO">    68</i>
   <i type="int" name="IWAVPR">    10</i>
   <i type="int" name="NBANDS">    20</i>
   <i name="NELECT">     24.00000000</i>
   <i type="int" name="TURBO">     0</i>
   <i type="int" name="IRESTART">     0</i>
   <i type="int" name="NREBOOT">     0</i>
   <i type="int" name="NMIN">     0</i>
   <i name="EREF">      0.00000000</i>
   <separator name="electronic smearing" >
    <i type="int" name="ISMEAR">     0</i>
    <i name="SIGMA">      0.20000000</i>
    <i name="KSPACING">      0.50000000</i>
    <i type="logical" name="KGAMMA"> T  </i>
   </separator>
   <separator name="electronic projectors" >
    <i type="logical" name="LREAL"> F  </i>
    <v name="ROPT">      0.00000000</v>
    <i type="int" name="LMAXPAW">  -100</i>
    <i type="int" name="LMAXMIX">     2</i>
    <i type="logical" name="NLSPLINE"> F  </i>
   </separator>
   <separator name="electronic startup" >
    <i type="int" name="ISTART">     0</i>
    <i type="int" name="ICHARG">     2</i>
    <i type="int" name="INIWAV">     1</i>
   </separator>
   <separator name="electronic spin" >
    <i type="int" name="ISPIN">     1</i>
    <i type="logical" name="LNONCOLLINEAR"> F  </i>
    <v name="MAGMOM">      1.00000000      1.00000000      1.00000000      1.00000000      1.00000000      1.00000000      1.00000000      1.00000000</v>
    <i name="NUPDOWN">     -1.00000000</i>
    <i type="logical" name="LSORBIT"> F  </i>
    <v name="SAXIS">      0.00000000      0.00000000      1.00000000</v>
    <i type="logical" name="LSPIRAL"> F  </i>
    <v name="QSPIRAL">      0.00000000      0.00000000      0.00000000</v>
    <i type="logical" name="LZEROZ"> F  </i>
   </separator>
   <separator name="electronic exchange-correlation" >
    <i type="logical" name="LASPH"> F  </i>
    <i type="logical" name="LMETAGGA"> F  </i>
   </separator>
   <separator name="electronic convergence" >
    <i type="int" name="NELM">    60</i>
    <i type="int" name="NELMDL">    -5</i>
    <i type="int" name="NELMIN">     2</i>
    <i name="ENINI">    134.67800000</i>
    <separator name="electronic convergence detail" >
     <i type="logical" name="LDIAG"> T  </i>
     <i type="logical" name="LSUBROT"> T  </i>
     <i name="WEIMIN">      0.00000000</i>
     <i name="EBREAK">      0.00000125</i>
     <i name="DEPER">      0.30000000</i>
     <i type="int" name="NRMM">     4</i>
     <i name="TIME">      0.40000000</i>
    </separator>
   </separator>
   <separator name="electronic mixer" >
    <i name="AMIX">      0.40000000</i>
    <i name="BMIX">      1.00000000</i>
    <i name="AMIN">      0.10000000</i>
    <i name="AMIX_MAG">      1.60000000</i>
    <i name="BMIX_MAG">      1.00000000</i>
    <separator name="electronic mixer details" >
     <i type="int" name="IMIX">     4</i>
     <i type="int" name="MAXMIX">   -45</i>
     <i name="WC">    100.00000000</i>
     <i type="int" name="INIMIX">     1</i>
     <i type="int" name="MIXPRE">     1</i>
     <i type="int" name="MREMOVE">     5</i>
    </separator>
   </separator>
   <separator name="electronic dipolcorrection" >
    <i type="logical" name="LDIPOL"> F  </i>
    <i type="logical" name="LMONO"> F  </i>
    <i type="int" name="IDIPOL">     0</i>
    <i name="EPSILON">      1.00000000</i>
    <v name="DIPOL">   -100.00000000   -100.00000000   -100.00000000</v>
    <i name="EFIELD">      0.00000000</i>
   </separator>
  </separator>
  <separator name="grids" >
   <i type="int" name="NGX">    16</i>
   <i type="int" name="NGY">    16</i>
   <i type="int" name="NGZ">    16</i>
   <i type="int" name="NGXF">    32</i>
   <i type="int" name="NGYF">    32</i>
   <i type="int" name="NGZF">    32</i>
   <i type="logical" name="ADDGRID"> F  </i>
  </separator>
  <separator name="ionic" >
   <i type="int" name="NSW">     0</i>
   <i type="int" name="IBRION">    -1</i>
   <i type="int" name="ISIF">     2</i>
   <i name="PSTRESS">      0.00000000</i>
   <i name="EDIFFG">      0.00100000</i>
   <i type="int" name="NFREE">     0</i>
   <i name="POTIM">      0.50000000</i>
   <i name="SMASS">     -3.00000000</i>
   <i name="SCALEE">      1.00000000</i>
  </separator>
  <separator name="ionic md" >
   <i name="TEBEG">      0.00010000</i>
   <i name="TEEND">      0.00010000</i>
   <i type="int" name="NBLOCK">     1</i>
   <i type="int" name="KBLOCK">     1</i>
   <i type="int" name="NPACO">   256</i>
   <i name="APACO">     16.00000000</i>
  </separator>
  <separator name="symmetry" >
   <i type="int" name="ISYM">     1</i>
   <i name="SYMPREC">      0.00001000</i>
  </separator>
  <separator name="dos" >
   <i type="logical" name="LORBIT"> F  </i>
   <v name="RWIGS">     -1.00000000</v>
   <i type="int" name="NEDOS">   301</i>
   <i name="EMIN">     10.00000000</i>
   <i name="EMAX">    -10.00000000</i>
   <i name="EFERMI">      0.00000000</i>
  </separator>
  <separator name="writing" >
   <i type="int" name="NWRITE">     2</i>
   <i type="logical" name="LWAVE"> F  </i>
   <i type="logical" name="LCHARG"> F  </i>
   <i type="logical" name="LPARD"> F  </i>
   <i type="logical" name="LVTOT"> F  </i>
   <i type="logical" name="LVHAR"> F  </i>
   <i type="logical" name="LELF"> F  </i>
   <i type="logical" name="LOPTICS"> F  </i>
   <v name="STM">      0.00000000      0.00000000      0.00000000      0.00000000      0.00000000      0.00000000      0.00000000</v>
  </separator>
  <separator name="performance" >
   <i type="int" name="NPAR">    20</i>
   <i type="int" name="NSIM">     4</i>
   <i type="int" name="NBLK">    -1</i>
   <i type="logical" name="LPLANE"> T  </i>
   <i type="logical" name="LSCALAPACK"> T  </i>
   <i type="logical" name="LSCAAWARE"> F  </i>
   <i type="logical" name="LSCALU"> F  </i>
   <i type="logical" name="LASYNC"> F  </i>
   <i type="logical" name="LORBITALREAL"> F  </i>
  </separator>
  <separator name="miscellaneous" >
   <i type="int" name="IDIOT">     3</i>
   <i type="logical" name="LMUSIC"> F  </i>
   <v name="POMASS">     69.72300000</v>
   <v name="DARWINR">      0.00000000</v>
   <v name="DARWINV">      1.00000000</v>
   <i type="logical" name="LCORR"> T  </i>
  </separator>
  <i type="logical" name="GGA_COMPAT"> T  </i>
  <i type="logical" name="LBERRY"> F  </i>
  <i type="int" name="ICORELEVEL">     0</i>
  <i type="logical" name="LDAU"> F  </i>
  <i type="int" name="I_CONSTRAINED_M">     0</i>
  <separator name="electronic exchange-correlation" >
   <i type="string" name="GGA">--</i>
   <i type="int" name="VOSKOWN">     0</i>
   <i type="logical" name="LHFCALC"> F  </i>
   <i type="string" name="PRECFOCK"></i>
   <i type="logical" name="LSYMGRAD"> F  </i>
   <i type="logical" name="LHFONE"> F  </i>
   <i type="logical" name="LRHFCALC"> F  </i>
   <i type="logical" name="LTHOMAS"> F  </i>
   <i type="logical" name="LMODELHF"> F  </i>
   <i name="ENCUT4O">     -1.00000000</i>
   <i type="int" name="EXXOEP">     0</i>
   <i type="int" name="FOURORBIT">     0</i>
   <i name="AEXX">      0.00000000</i>
   <i name="HFALPHA">      0.00000000</i>
   <i name="MCALPHA">      0.00000000</i>
   <i name="ALDAX">      1.00000000</i>
   <i name="AGGAX">      1.00000000</i>
   <i name="ALDAC">      1.00000000</i>
   <i name="AGGAC">      1.00000000</i>
   <i type="int" name="NKREDX">     1</i>
   <i type="int" name="NKREDY">     1</i>
   <i type="int" name="NKREDZ">     1</i>
   <i type="logical" name="SHIFTRED"> F  </i>
   <i type="logical" name="ODDONLY"> F  </i>
   <i type="logical" name="EVENONLY"> F  </i>
   <i type="int" name="LMAXFOCK">     0</i>
   <i type="int" name="NMAXFOCKAE">     0</i>
   <i type="logical" name="LFOCKAEDFT"> F  </i>
   <i name="HFSCREEN">      0.00000000</i>
   <i name="HFSCREENC">      0.00000000</i>
   <i type="int" name="NBANDSGWLOW">     0</i>
  </separator>
  <separator name="vdW DFT" >
   <i type="logical" name="LUSE_VDW"> F  </i>
   <i name="Zab_VDW">     -0.84910000</i>
   <i name="PARAM1">      0.12340000</i>
   <i name="PARAM2">      1.00000000</i>
   <i name="PARAM3">      0.00000000</i>
  </separator>
  <separator name="model GW" >
   <i type="int" name="MODEL_GW">     0</i>
   <i name="MODEL_EPS0">     14.35410601</i>
   <i name="MODEL_ALPHA">      1.00000000</i>
  </separator>
  <separator name="linear response parameters" >
   <i type="logical" name="LEPSILON"> F  </i>
   <i type="logical" name="LRPA"> F  </i>
   <i type="logical" name="LNABLA"> F  </i>
   <i type="logical" name="LVEL"> F  </i>
   <i type="int" name="KINTER">     0</i>
   <i name="CSHIFT">      0.10000000</i>
   <i name="OMEGAMAX">     -1.00000000</i>
   <i name="DEG_THRESHOLD">      0.00200000</i>
  </separator>
  <separator name="orbital magnetization" >
   <i type="logical" name="NUCIND"> F  </i>
   <v name="MAGPOS">      0.00000000      0.00000000      0.00000000</v>
   <i type="logical" name="LNICSALL"> T  </i>
   <i type="logical" name="ORBITALMAG"> F  </i>
   <i type="logical" name="LMAGBLOCH"> F  </i>
   <i type="logical" name="LCHIMAG"> F  </i>
   <i type="logical" name="LGAUGE"> T  </i>
   <i type="int" name="MAGATOM">     0</i>
   <v name="MAGDIPOL">      0.00000000      0.00000000      0.00000000</v>
   <v name="AVECCONST">      0.00000000      0.00000000      0.00000000</v>
  </separator>
  <separator name="response functions" >
   <i type="logical" name="LADDER"> F  </i>
   <i type="logical" name="LFXC"> F  </i>
   <i type="logical" name="LHARTREE"> T  </i>
   <i type="int" name="IBSE">     0</i>
   <i type="logical" name="LTCTE"> F  </i>
   <i type="logical" name="LTETE"> F  </i>
   <i type="logical" name="LTRIPLET"> F  </i>
   <i type="logical" name="LFXCEPS"> F  </i>
   <i type="logical" name="L2ORDER"> F  </i>
   <i type="logical" name="LUSEW"> F  </i>
   <i name="ENCUTGW">     -2.00000000</i>
   <i name="ENCUTGWSOFT">     -2.00000000</i>
   <i name="ENCUTLF">     -1.00000000</i>
   <i type="int" name="LMAXMP2">    -1</i>
   <i name="SCISSOR">      0.00000000</i>
   <i type="int" name="NOMEGA">     0</i>
   <i type="int" name="NOMEGAR">     0</i>
   <i type="int" name="NBANDSGW">    -1</i>
   <i type="int" name="NBANDSO">    -1</i>
   <i type="int" name="NBANDSV">    -1</i>
   <i type="int" name="NELM">     1</i>
   <i type="int" name="DIM">     3</i>
   <i type="int" name="ANTIRES">     0</i>
   <i name="OMEGAMAX">    -30.00000000</i>
   <i name="OMEGATL">   -200.00000000</i>
   <i type="int" name="OMEGAGRID">     0</i>
   <i name="CSHIFT">     -0.10000000</i>
   <i type="logical" name="SELFENERGY"> F  </i>
   <i type="logical" name="LSPECTRAL"> F  </i>
   <i type="logical" name="ODDONLYGW"> F  </i>
   <i type="logical" name="EVENONLYGW"> F  </i>
   <i type="int" name="NKREDLFX">     1</i>
   <i type="int" name="NKREDLFY">     1</i>
   <i type="int" name="NKREDLFZ">     1</i>
   <i type="int" name="MAXMEM">  1800</i>
   <i type="int" name="TELESCOPE">     0</i>
  </separator>
 </parameters>
 <atominfo>
  <atoms>       8 </atoms>
  <types>       1 </types>
  <array name="atoms" >
   <dimension dim="1">ion</dimension>
   <field type="string">element</field>
   <field type="int">atomtype</field>
   <set>
    <rc><c>Ga</c><c>   1</c></rc>
    <rc><c>Ga</c><c>   1</c></rc>
    <rc><c>Ga</c><c>   1</c></rc>
    <rc><c>Ga</c><c>   1</c></rc>
    <rc><c>Ga</c><c>   1</c></rc>
    <rc><c>Ga</c><c>   1</c></rc>
    <rc><c>Ga</c><c>   1</c></rc>
    <rc><c>Ga</c><c>   1</c></rc>
   </set>
  </array>
  <array name="atomtypes" >
   <dimension dim="1">type</dimension>
   <field type="int">atomspertype</field>
   <field type="string">element</field>
   <field>mass</field>
   <field>valence</field>
   <field type="string">pseudopotential</field>
   <set>
    <rc><c>   8</c><c>Ga</c><c>     69.72300000</c><c>      3.00000000</c><c> PAW_PBE Ga 08Apr2002                   </c></rc>
   </set>
  </array>
 </atominfo>
 <structure name="initialpos" >
  <crystal>
   <varray name="basis" >
    <v>       5.76286300       0.00000000       0.00000000 </v>
    <v>       0.00000000       5.76286300       0.00000000 </v>
    <v>       0.00000000       0.00000000       5.76286300 </v>
   </varray>
   <i name="volume">    191.38808007 </i>
   <varray name="rec_basis" >
    <v>       0.17352486       0.00000000       0.00000000 </v>
    <v>       0.00000000       0.17352486       0.00000000 </v>
    <v>       0.00000000       0.00000000       0.17352486 </v>
   </varray>
  </crystal>
  <varray name="positions" >
   <v>       0.75000000       0.75000000       0.75000000 </v>
   <v>       0.50000000       0.00000000       0.00000000 </v>
   <v>       0.75000000       0.25000000       0.25000000 </v>
   <v>       0.50000000       0.50000000       0.50000000 </v>
   <v>       0.25000000       0.75000000       0.25000000 </v>
   <v>       0.00000000       0.00000000       0.50000000 </v>
   <v>       0.25000000       0.25000000       0.75000000 </v>
   <v>       0.00000000       0.50000000       0.00000000 </v>
  </varray>
 </structure>
 <calculation>
  <scstep>
   <time name="dav">    0.49    0.50</time>
   <time name="total">    0.52    0.53</time>
   <energy>
    <i name="alphaZ">     59.64982895 </i>
    <i name="ewald">   -484.56382983 </i>
    <i name="hartreedc">    -22.55400900 </i>
    <i name="XCdc">   -155.28694958 </i>
    <i name="pawpsdc">    330.10196642 </i>
    <i name="pawaedc">   -140.54714835 </i>
    <i name="eentropy">     -0.05229874 </i>
    <i name="bandstr">    -45.74332048 </i>
    <i name="atom">    470.93120954 </i>
    <i name="e_fr_energy">     11.93544892 </i>
    <i name="e_wo_entrp">     11.98774766 </i>
    <i name="e_0_energy">     11.96159829 </i>
   </energy>
  </scstep>
  <scstep>
   <time name="dav">    0.96    0.96</time>
   <time name="total">    0.96    0.96</time>
   <energy>
    <i name="e_fr_energy">    -20.59806696 </i>
    <i name="e_wo_entrp">    -20.49850324 </i>
    <i name="e_0_energy">    -20.54828510 </i>
   </energy>
  </scstep>
  <scstep>
   <time name="dav">    0.54    0.54</time>
   <time name="total">    0.54    0.54</time>
   <energy>
    <i name="e_fr_energy">    -21.02200195 </i>
    <i name="e_wo_entrp">    -20.92175867 </i>
    <i name="e_0_energy">    -20.97188031 </i>
   </energy>
  </scstep>
  <scstep>
   <time name="dav">    1.30    1.31</time>
   <time name="total">    1.30    1.31</time>
   <energy>
    <i name="e_fr_energy">    -21.02287553 </i>
    <i name="e_wo_entrp">    -20.92261720 </i>
    <i name="e_0_energy">    -20.97274636 </i>
   </energy>
  </scstep>
  <scstep>
   <time name="dav">    0.52    0.52</time>
   <time name="total">    0.55    0.55</time>
   <energy>
    <i name="e_fr_energy">    -21.02287560 </i>
    <i name="e_wo_entrp">    -20.92261725 </i>
    <i name="e_0_energy">    -20.97274643 </i>
   </energy>
  </scstep>
  <scstep>
   <time name="diag">    0.16    0.19</time>
   <time name="diis">    0.15    0.15</time>
   <time name="orth">    0.02    0.02</time>
   <time name="total">    0.35    0.38</time>
   <energy>
    <i name="e_fr_energy">    -20.93687845 </i>
    <i name="e_wo_entrp">    -20.83665274 </i>
    <i name="e_0_energy">    -20.88676560 </i>
   </energy>
  </scstep>
  <scstep>
   <time name="diag">    0.15    0.15</time>
   <time name="diis">    0.17    0.17</time>
   <time name="orth">    0.01    0.02</time>
   <time name="total">    0.36    0.36</time>
   <energy>
    <i name="e_fr_energy">    -20.89031683 </i>
    <i name="e_wo_entrp">    -20.79008673 </i>
    <i name="e_0_energy">    -20.84020178 </i>
   </energy>
  </scstep>
  <scstep>
   <time name="diag">    0.14    0.14</time>
   <time name="diis">    0.20    0.20</time>
   <time name="orth">    0.02    0.02</time>
   <time name="total">    0.38    0.38</time>
   <energy>
    <i name="e_fr_energy">    -20.89062190 </i>
    <i name="e_wo_entrp">    -20.79037261 </i>
    <i name="e_0_energy">    -20.84049726 </i>
   </energy>
  </scstep>
  <scstep>
   <time name="diag">    0.14    0.14</time>
   <time name="diis">    0.22    0.22</time>
   <time name="orth">    0.01    0.02</time>
   <time name="total">    0.38    0.38</time>
   <energy>
    <i name="alphaZ">     59.64982895 </i>
    <i name="ewald">   -484.56382983 </i>
    <i name="hartreedc">    -24.23564463 </i>
    <i name="XCdc">   -153.70134178 </i>
    <i name="pawpsdc">    423.41360844 </i>
    <i name="pawaedc">   -235.28744185 </i>
    <i name="eentropy">     -0.10025081 </i>
    <i name="bandstr">    -76.99679956 </i>
    <i name="atom">    470.93120954 </i>
    <i name="e_fr_energy">    -20.89066152 </i>
    <i name="e_wo_entrp">    -20.79041071 </i>
    <i name="e_0_energy">    -20.84053612 </i>
   </energy>
  </scstep>
  <structure>
   <crystal>
    <varray name="basis" >
     <v>       5.76286300       0.00000000       0.00000000 </v>
     <v>       0.00000000       5.76286300       0.00000000 </v>
     <v>       0.00000000       0.00000000       5.76286300 </v>
    </varray>
    <i name="volume">    191.38808007 </i>
    <varray name="rec_basis" >
     <v>       0.17352486       0.00000000       0.00000000 </v>
     <v>       0.00000000       0.17352486       0.00000000 </v>
     <v>       0.00000000       0.00000000       0.17352486 </v>
    </varray>
   </crystal>
   <varray name="positions" >
    <v>       0.75000000       0.75000000       0.75000000 </v>
    <v>       0.50000000       0.00000000       0.00000000 </v>
    <v>       0.75000000       0.25000000       0.25000000 </v>
    <v>       0.50000000       0.50000000       0.50000000 </v>
    <v>       0.25000000       0.75000000       0.25000000 </v>
    <v>       0.00000000       0.00000000       0.50000000 </v>
    <v>       0.25000000       0.25000000       0.75000000 </v>
    <v>       0.00000000       0.50000000       0.00000000 </v>
   </varray>
  </structure>
  <varray name="forces" >
   <v>      -0.00000000       0.00000000      -0.00000000 </v>
   <v>       0.00000000       0.00000000       0.00000000 </v>
   <v>       0.00000000      -0.00000000       0.00000000 </v>
   <v>      -0.00000000       0.00000000       0.00000000 </v>
   <v>      -0.00000000      -0.00000000       0.00000000 </v>
   <v>      -0.00000000      -0.00000000       0.00000000 </v>
   <v>       0.00000000      -0.00000000      -0.00000000 </v>
   <v>      -0.00000000       0.00000000      -0.00000000 </v>
  </varray>
  <varray name="stress" >
   <v>      26.40169485       0.00000000      -0.00000000 </v>
   <v>       0.00000000      26.40169485      -0.00000000 </v>
   <v>      -0.00000000       0.00000000      26.40169485 </v>
  </varray>
  <energy>
   <i name="e_fr_energy">    -20.89066152 </i>
   <i name="e_wo_entrp">    -20.84053612 </i>
   <i name="e_0_energy">     -0.10025081 </i>
  </energy>
  <time name="totalsc">    5.96    6.03</time>
  <eigenvalues>
   <array>
    <dimension dim="1">band</dimension>
    <dimension dim="2">kpoint</dimension>
    <dimension dim="3">spin</dimension>
    <field>eigene</field>
    <field>occ</field>
    <set>
     <set comment="spin 1">
      <set comment="kpoint 1">
       <r>   -8.8557    1.0000 </r>
       <r>   -4.8411    1.0000 </r>
       <r>   -4.8411    1.0000 </r>
       <r>   -4.8411    1.0000 </r>
       <r>   -4.8411    1.0000 </r>
       <r>   -4.8411    1.0000 </r>
       <r>   -4.8411    1.0000 </r>
       <r>    0.2306    0.9999 </r>
       <r>    0.2306    0.9999 </r>
       <r>    0.2306    0.9999 </r>
       <r>    0.2306    0.9999 </r>
       <r>    0.2306    0.9999 </r>
       <r>    0.2306    0.9999 </r>
       <r>    3.6003    0.0000 </r>
       <r>    3.6003    0.0000 </r>
       <r>    3.6003    0.0000 </r>
       <r>    3.6003    0.0000 </r>
       <r>    3.6003    0.0000 </r>
       <r>    3.6003    0.0000 </r>
       <r>    3.6783    0.0000 </r>
      </set>
      <set comment="kpoint 2">
       <r>   -8.8372    1.0000 </r>
       <r>   -5.3367    1.0000 </r>
       <r>   -4.8348    1.0000 </r>
       <r>   -4.8348    1.0000 </r>
       <r>   -4.8348    1.0000 </r>
       <r>   -4.8348    1.0000 </r>
       <r>   -4.3202    1.0000 </r>
       <r>    0.1683    1.0000 </r>
       <r>    0.1683    1.0000 </r>
       <r>    0.1683    1.0000 </r>
       <r>    0.1683    1.0000 </r>
       <r>    0.2509    0.9998 </r>
       <r>    0.2509    0.9998 </r>
       <r>    3.3967    0.0000 </r>
       <r>    3.5053    0.0000 </r>
       <r>    3.5565    0.0000 </r>
       <r>    3.5565    0.0000 </r>
       <r>    3.7121    0.0000 </r>
       <r>    3.7121    0.0000 </r>
       <r>    3.7121    0.0000 </r>
      </set>
      <set comment="kpoint 3">
       <r>   -8.7817    1.0000 </r>
       <r>   -5.8049    1.0000 </r>
       <r>   -4.8163    1.0000 </r>
       <r>   -4.8163    1.0000 </r>
       <r>   -4.8163    1.0000 </r>
       <r>   -4.8163    1.0000 </r>
       <r>   -3.7759    1.0000 </r>
       <r>    0.0077    1.0000 </r>
       <r>    0.0077    1.0000 </r>
       <r>    0.0077    1.0000 </r>
       <r>    0.0077    1.0000 </r>
       <r>    0.3118    0.9991 </r>
       <r>    0.3118    0.9991 </r>
       <r>    2.8579    0.0000 </r>
       <r>    3.2632    0.0000 </r>
       <r>    3.2632    0.0000 </r>
       <r>    3.4573    0.0000 </r>
       <r>    3.9356    0.0000 </r>
       <r>    4.0235    0.0000 </r>
       <r>    4.0235    0.0000 </r>
      </set>
      <set comment="kpoint 4">
       <r>   -8.6893    1.0000 </r>
       <r>   -6.2440    1.0000 </r>
       <r>   -4.7885    1.0000 </r>
       <r>   -4.7885    1.0000 </r>
       <r>   -4.7885    1.0000 </r>
       <r>   -4.7885    1.0000 </r>
       <r>   -3.2126    1.0000 </r>
       <r>   -0.2017    1.0000 </r>
       <r>   -0.2017    1.0000 </r>
       <r>   -0.2017    1.0000 </r>
       <r>   -0.2017    1.0000 </r>
       <r>    0.4123    0.9920 </r>
       <r>    0.4123    0.9920 </r>
       <r>    2.2618    0.0000 </r>
       <r>    2.9009    0.0000 </r>
       <r>    2.9009    0.0000 </r>
       <r>    3.4543    0.0000 </r>
       <r>    4.1784    0.0000 </r>
       <r>    4.4854    0.0000 </r>
       <r>    4.4854    0.0000 </r>
      </set>
      <set comment="kpoint 5">
       <r>   -8.5599    1.0000 </r>
       <r>   -6.6523    1.0000 </r>
       <r>   -4.7557    1.0000 </r>
       <r>   -4.7557    1.0000 </r>
       <r>   -4.7557    1.0000 </r>
       <r>   -4.7557    1.0000 </r>
       <r>   -2.6325    1.0000 </r>
       <r>   -0.4143    1.0000 </r>
       <r>   -0.4143    1.0000 </r>
       <r>   -0.4143    1.0000 </r>
       <r>   -0.4143    1.0000 </r>
       <r>    0.5525    0.9219 </r>
       <r>    0.5525    0.9219 </r>
       <r>    1.6503    0.0000 </r>
       <r>    2.5234    0.0000 </r>
       <r>    2.5234    0.0000 </r>
       <r>    3.4954    0.0000 </r>
       <r>    4.4719    0.0000 </r>
       <r>    4.8601    0.0000 </r>
       <r>    5.0555    0.0000 </r>
      </set>
      <set comment="kpoint 6">
       <r>   -8.3941    1.0000 </r>
       <r>   -7.0283    1.0000 </r>
       <r>   -4.7231    1.0000 </r>
       <r>   -4.7231    1.0000 </r>
       <r>   -4.7231    1.0000 </r>
       <r>   -4.7231    1.0000 </r>
       <r>   -2.0389    1.0000 </r>
       <r>   -0.5980    1.0000 </r>
       <r>   -0.5980    1.0000 </r>
       <r>   -0.5980    1.0000 </r>
       <r>   -0.5980    1.0000 </r>
       <r>    0.7315    0.5605 </r>
       <r>    0.7315    0.5605 </r>
       <r>    1.0324    0.0241 </r>
       <r>    2.1551    0.0000 </r>
       <r>    2.1551    0.0000 </r>
       <r>    3.5792    0.0000 </r>
       <r>    4.5724    0.0000 </r>
       <r>    4.8151    0.0000 </r>
       <r>    5.7053    0.0000 </r>
      </set>
      <set comment="kpoint 7">
       <r>   -8.1919    1.0000 </r>
       <r>   -7.3716    1.0000 </r>
       <r>   -4.6967    1.0000 </r>
       <r>   -4.6967    1.0000 </r>
       <r>   -4.6967    1.0000 </r>
       <r>   -4.6967    1.0000 </r>
       <r>   -1.4349    1.0000 </r>
       <r>   -0.7314    1.0000 </r>
       <r>   -0.7314    1.0000 </r>
       <r>   -0.7314    1.0000 </r>
       <r>   -0.7314    1.0000 </r>
       <r>    0.4131    0.9919 </r>
       <r>    0.9483    0.0837 </r>
       <r>    0.9483    0.0837 </r>
       <r>    1.8080    0.0000 </r>
       <r>    1.8080    0.0000 </r>
       <r>    3.7040    0.0000 </r>
       <r>    4.3071    0.0000 </r>
       <r>    5.2039    0.0000 </r>
       <r>    6.4181    0.0000 </r>
      </set>
      <set comment="kpoint 8">
       <r>   -7.9538    1.0000 </r>
       <r>   -7.6801    1.0000 </r>
       <r>   -4.6821    1.0000 </r>
       <r>   -4.6821    1.0000 </r>
       <r>   -4.6821    1.0000 </r>
       <r>   -4.6821    1.0000 </r>
       <r>   -0.8212    1.0000 </r>
       <r>   -0.8022    1.0000 </r>
       <r>   -0.8022    1.0000 </r>
       <r>   -0.8022    1.0000 </r>
       <r>   -0.8022    1.0000 </r>
       <r>   -0.2052    1.0000 </r>
       <r>    1.2016    0.0008 </r>
       <r>    1.2016    0.0008 </r>
       <r>    1.4893    0.0000 </r>
       <r>    1.4893    0.0000 </r>
       <r>    3.8693    0.0000 </r>
       <r>    4.0713    0.0000 </r>
       <r>    5.6290    0.0000 </r>
       <r>    6.0623    0.0000 </r>
      </set>
      <set comment="kpoint 9">
       <r>   -8.8187    1.0000 </r>
       <r>   -5.3275    1.0000 </r>
       <r>   -5.3275    1.0000 </r>
       <r>   -4.8578    1.0000 </r>
       <r>   -4.7995    1.0000 </r>
       <r>   -4.3175    1.0000 </r>
       <r>   -4.3175    1.0000 </r>
       <r>   -0.0272    1.0000 </r>
       <r>    0.1809    1.0000 </r>
       <r>    0.1809    1.0000 </r>
       <r>    0.1975    1.0000 </r>
       <r>    0.1975    1.0000 </r>
       <r>    0.2652    0.9997 </r>
       <r>    3.0533    0.0000 </r>
       <r>    3.4360    0.0000 </r>
       <r>    3.6222    0.0000 </r>
       <r>    3.6222    0.0000 </r>
       <r>    3.6337    0.0000 </r>
       <r>    3.6523    0.0000 </r>
       <r>    3.8497    0.0000 </r>
      </set>
      <set comment="kpoint 10">
       <r>   -8.7633    1.0000 </r>
       <r>   -5.7934    1.0000 </r>
       <r>   -5.3004    1.0000 </r>
       <r>   -4.8713    1.0000 </r>
       <r>   -4.7517    1.0000 </r>
       <r>   -4.3107    1.0000 </r>
       <r>   -3.7788    1.0000 </r>
       <r>   -0.2714    1.0000 </r>
       <r>    0.0006    1.0000 </r>
       <r>    0.0592    1.0000 </r>
       <r>    0.2351    0.9999 </r>
       <r>    0.2387    0.9999 </r>
       <r>    0.2682    0.9997 </r>
       <r>    2.5497    0.0000 </r>
       <r>    3.1451    0.0000 </r>
       <r>    3.4699    0.0000 </r>
       <r>    3.5789    0.0000 </r>
       <r>    3.7791    0.0000 </r>
       <r>    3.9452    0.0000 </r>
       <r>    4.0364    0.0000 </r>
      </set>
      <set comment="kpoint 11">
       <r>   -8.6709    1.0000 </r>
       <r>   -6.2308    1.0000 </r>
       <r>   -5.2572    1.0000 </r>
       <r>   -4.8792    1.0000 </r>
       <r>   -4.6922    1.0000 </r>
       <r>   -4.3031    1.0000 </r>
       <r>   -3.2219    1.0000 </r>
       <r>   -0.5178    1.0000 </r>
       <r>   -0.2347    1.0000 </r>
       <r>   -0.1189    1.0000 </r>
       <r>    0.1117    1.0000 </r>
       <r>    0.3300    0.9986 </r>
       <r>    0.3807    0.9958 </r>
       <r>    2.0070    0.0000 </r>
       <r>    2.7849    0.0000 </r>
       <r>    3.1086    0.0000 </r>
       <r>    3.5803    0.0000 </r>
       <r>    4.1240    0.0000 </r>
       <r>    4.2731    0.0000 </r>
       <r>    4.4198    0.0000 </r>
      </set>
      <set comment="kpoint 12">
       <r>   -8.5418    1.0000 </r>
       <r>   -6.6378    1.0000 </r>
       <r>   -5.2015    1.0000 </r>
       <r>   -4.8870    1.0000 </r>
       <r>   -4.6236    1.0000 </r>
       <r>   -4.2990    1.0000 </r>
       <r>   -2.6503    1.0000 </r>
       <r>   -0.7347    1.0000 </r>
       <r>   -0.4777    1.0000 </r>
       <r>   -0.2936    1.0000 </r>
       <r>   -0.0645    1.0000 </r>
       <r>    0.4647    0.9793 </r>
       <r>    0.5348    0.9386 </r>
       <r>    1.4462    0.0000 </r>
       <r>    2.4095    0.0000 </r>
       <r>    2.6999    0.0000 </r>
       <r>    3.6255    0.0000 </r>
       <r>    4.5601    0.0000 </r>
       <r>    4.6191    0.0000 </r>
       <r>    5.0017    0.0000 </r>
      </set>
      <set comment="kpoint 13">
       <r>   -8.3761    1.0000 </r>
       <r>   -7.0131    1.0000 </r>
       <r>   -5.1384    1.0000 </r>
       <r>   -4.9002    1.0000 </r>
       <r>   -4.5501    1.0000 </r>
       <r>   -4.3039    1.0000 </r>
       <r>   -2.0681    1.0000 </r>
       <r>   -0.9007    1.0000 </r>
       <r>   -0.6969    1.0000 </r>
       <r>   -0.4349    1.0000 </r>
       <r>   -0.2442    1.0000 </r>
       <r>    0.6388    0.7905 </r>
       <r>    0.7303    0.5639 </r>
       <r>    0.8739    0.1964 </r>
       <r>    2.0438    0.0000 </r>
       <r>    2.2938    0.0000 </r>
       <r>    3.7129    0.0000 </r>
       <r>    4.7184    0.0000 </r>
       <r>    4.8964    0.0000 </r>
       <r>    5.2215    0.0000 </r>
      </set>
      <set comment="kpoint 14">
       <r>   -8.1742    1.0000 </r>
       <r>   -7.3553    1.0000 </r>
       <r>   -5.0733    1.0000 </r>
       <r>   -4.9243    1.0000 </r>
       <r>   -4.4774    1.0000 </r>
       <r>   -4.3230    1.0000 </r>
       <r>   -1.4788    1.0000 </r>
       <r>   -1.0019    1.0000 </r>
       <r>   -0.8706    1.0000 </r>
       <r>   -0.5219    1.0000 </r>
       <r>   -0.3967    1.0000 </r>
       <r>    0.2932    0.9994 </r>
       <r>    0.8510    0.2443 </r>
       <r>    0.9669    0.0653 </r>
       <r>    1.7001    0.0000 </r>
       <r>    1.9106    0.0000 </r>
       <r>    3.8414    0.0000 </r>
       <r>    4.4516    0.0000 </r>
       <r>    5.2777    0.0000 </r>
       <r>    5.9030    0.0000 </r>
      </set>
      <set comment="kpoint 15">
       <r>   -7.9364    1.0000 </r>
       <r>   -7.6633    1.0000 </r>
       <r>   -5.0127    1.0000 </r>
       <r>   -4.9618    1.0000 </r>
       <r>   -4.4118    1.0000 </r>
       <r>   -4.3593    1.0000 </r>
       <r>   -1.0305    1.0000 </r>
       <r>   -0.9855    1.0000 </r>
       <r>   -0.8854    1.0000 </r>
       <r>   -0.5454    1.0000 </r>
       <r>   -0.5013    1.0000 </r>
       <r>   -0.2941    1.0000 </r>
       <r>    1.1002    0.0071 </r>
       <r>    1.2437    0.0003 </r>
       <r>    1.3839    0.0000 </r>
       <r>    1.5588    0.0000 </r>
       <r>    4.0093    0.0000 </r>
       <r>    4.2136    0.0000 </r>
       <r>    5.6931    0.0000 </r>
       <r>    6.1115    0.0000 </r>
      </set>
      <set comment="kpoint 16">
       <r>   -8.7080    1.0000 </r>
       <r>   -5.7595    1.0000 </r>
       <r>   -5.7595    1.0000 </r>
       <r>   -4.9205    1.0000 </r>
       <r>   -4.6754    1.0000 </r>
       <r>   -3.7874    1.0000 </r>
       <r>   -3.7874    1.0000 </r>
       <r>   -0.5530    1.0000 </r>
       <r>    0.0379    1.0000 </r>
       <r>    0.0379    1.0000 </r>
       <r>    0.1566    1.0000 </r>
       <r>    0.1566    1.0000 </r>
       <r>    0.3701    0.9966 </r>
       <r>    2.0697    0.0000 </r>
       <r>    2.8584    0.0000 </r>
       <r>    3.5702    0.0000 </r>
       <r>    3.7339    0.0000 </r>
       <r>    3.9124    0.0000 </r>
       <r>    3.9124    0.0000 </r>
       <r>    4.3212    0.0000 </r>
      </set>
      <set comment="kpoint 17">
       <r>   -8.6159    1.0000 </r>
       <r>   -6.1917    1.0000 </r>
       <r>   -5.7046    1.0000 </r>
       <r>   -4.9690    1.0000 </r>
       <r>   -4.5862    1.0000 </r>
       <r>   -3.8053    1.0000 </r>
       <r>   -3.2505    1.0000 </r>
       <r>   -0.8043    1.0000 </r>
       <r>   -0.2191    1.0000 </r>
       <r>    0.0164    1.0000 </r>
       <r>    0.1178    1.0000 </r>
       <r>    0.3006    0.9993 </r>
       <r>    0.3774    0.9961 </r>
       <r>    1.5633    0.0000 </r>
       <r>    2.5019    0.0000 </r>
       <r>    3.3706    0.0000 </r>
       <r>    3.9122    0.0000 </r>
       <r>    3.9233    0.0000 </r>
       <r>    4.3979    0.0000 </r>
       <r>    4.5429    0.0000 </r>
      </set>
      <set comment="kpoint 18">
       <r>   -8.4873    1.0000 </r>
       <r>   -6.5946    1.0000 </r>
       <r>   -5.6316    1.0000 </r>
       <r>   -5.0225    1.0000 </r>
       <r>   -4.4855    1.0000 </r>
       <r>   -3.8370    1.0000 </r>
       <r>   -2.7042    1.0000 </r>
       <r>   -1.0042    1.0000 </r>
       <r>   -0.4876    1.0000 </r>
       <r>   -0.1137    1.0000 </r>
       <r>    0.2403    0.9999 </r>
       <r>    0.2831    0.9996 </r>
       <r>    0.4927    0.9672 </r>
       <r>    1.0491    0.0182 </r>
       <r>    2.1307    0.0000 </r>
       <r>    2.9974    0.0000 </r>
       <r>    3.9770    0.0000 </r>
       <r>    4.2895    0.0000 </r>
       <r>    4.8137    0.0000 </r>
       <r>    4.9881    0.0000 </r>
      </set>
      <set comment="kpoint 19">
       <r>   -8.3222    1.0000 </r>
       <r>   -6.9668    1.0000 </r>
       <r>   -5.5441    1.0000 </r>
       <r>   -5.0862    1.0000 </r>
       <r>   -4.3759    1.0000 </r>
       <r>   -3.8867    1.0000 </r>
       <r>   -2.1540    1.0000 </r>
       <r>   -1.1389    1.0000 </r>
       <r>   -0.7357    1.0000 </r>
       <r>   -0.2053    1.0000 </r>
       <r>    0.1380    1.0000 </r>
       <r>    0.4033    0.9933 </r>
       <r>    0.5311    0.9417 </r>
       <r>    0.7327    0.5573 </r>
       <r>    1.7702    0.0000 </r>
       <r>    2.5695    0.0000 </r>
       <r>    4.0719    0.0000 </r>
       <r>    4.8164    0.0000 </r>
       <r>    5.0950    0.0000 </r>
       <r>    5.1321    0.0000 </r>
      </set>
      <set comment="kpoint 20">
       <r>   -8.1212    1.0000 </r>
       <r>   -7.3066    1.0000 </r>
       <r>   -5.4473    1.0000 </r>
       <r>   -5.1623    1.0000 </r>
       <r>   -4.2620    1.0000 </r>
       <r>   -3.9566    1.0000 </r>
       <r>   -1.6046    1.0000 </r>
       <r>   -1.1992    1.0000 </r>
       <r>   -0.9430    1.0000 </r>
       <r>   -0.2419    1.0000 </r>
       <r>   -0.0125    1.0000 </r>
       <r>    0.0079    1.0000 </r>
       <r>    0.6055    0.8517 </r>
       <r>    1.0205    0.0293 </r>
       <r>    1.4315    0.0000 </r>
       <r>    2.1387    0.0000 </r>
       <r>    4.2068    0.0000 </r>
       <r>    4.8284    0.0000 </r>
       <r>    5.4499    0.0000 </r>
       <r>    5.4927    0.0000 </r>
      </set>
      <set comment="kpoint 21">
       <r>   -7.8845    1.0000 </r>
       <r>   -7.6128    1.0000 </r>
       <r>   -5.3472    1.0000 </r>
       <r>   -5.2502    1.0000 </r>
       <r>   -4.1496    1.0000 </r>
       <r>   -4.0455    1.0000 </r>
       <r>   -1.1839    1.0000 </r>
       <r>   -1.0960    1.0000 </r>
       <r>   -1.0593    1.0000 </r>
       <r>   -0.5216    1.0000 </r>
       <r>   -0.2180    1.0000 </r>
       <r>   -0.1377    1.0000 </r>
       <r>    0.8456    0.2564 </r>
       <r>    1.1220    0.0045 </r>
       <r>    1.3535    0.0000 </r>
       <r>    1.7291    0.0000 </r>
       <r>    4.3795    0.0000 </r>
       <r>    4.5879    0.0000 </r>
       <r>    5.8804    0.0000 </r>
       <r>    6.1595    0.0000 </r>
      </set>
      <set comment="kpoint 22">
       <r>   -8.5244    1.0000 </r>
       <r>   -6.1278    1.0000 </r>
       <r>   -6.1278    1.0000 </r>
       <r>   -5.0631    1.0000 </r>
       <r>   -4.4680    1.0000 </r>
       <r>   -3.3006    1.0000 </r>
       <r>   -3.3006    1.0000 </r>
       <r>   -1.0388    1.0000 </r>
       <r>   -0.1578    1.0000 </r>
       <r>   -0.1578    1.0000 </r>
       <r>    0.2055    0.9999 </r>
       <r>    0.2055    0.9999 </r>
       <r>    0.5433    0.9310 </r>
       <r>    1.0885    0.0089 </r>
       <r>    2.1493    0.0000 </r>
       <r>    3.4225    0.0000 </r>
       <r>    3.8992    0.0000 </r>
       <r>    4.4183    0.0000 </r>
       <r>    4.4183    0.0000 </r>
       <r>    4.9564    0.0000 </r>
      </set>
      <set comment="kpoint 23">
       <r>   -8.3965    1.0000 </r>
       <r>   -6.5240    1.0000 </r>
       <r>   -6.0409    1.0000 </r>
       <r>   -5.1669    1.0000 </r>
       <r>   -4.3376    1.0000 </r>
       <r>   -3.3753    1.0000 </r>
       <r>   -2.7941    1.0000 </r>
       <r>   -1.2080    1.0000 </r>
       <r>   -0.4461    1.0000 </r>
       <r>   -0.0508    1.0000 </r>
       <r>    0.1283    1.0000 </r>
       <r>    0.4503    0.9839 </r>
       <r>    0.5816    0.8873 </r>
       <r>    0.6092    0.8455 </r>
       <r>    1.7825    0.0000 </r>
       <r>    3.2051    0.0000 </r>
       <r>    4.1088    0.0000 </r>
       <r>    4.4800    0.0000 </r>
       <r>    5.0162    0.0000 </r>
       <r>    5.2068    0.0000 </r>
      </set>
      <set comment="kpoint 24">
       <r>   -8.2325    1.0000 </r>
       <r>   -6.8905    1.0000 </r>
       <r>   -5.9346    1.0000 </r>
       <r>   -5.2824    1.0000 </r>
       <r>   -4.1958    1.0000 </r>
       <r>   -3.4753    1.0000 </r>
       <r>   -2.2910    1.0000 </r>
       <r>   -1.3021    1.0000 </r>
       <r>   -0.7176    1.0000 </r>
       <r>    0.0915    1.0000 </r>
       <r>    0.0990    1.0000 </r>
       <r>    0.1307    1.0000 </r>
       <r>    0.5171    0.9524 </r>
       <r>    0.7504    0.5076 </r>
       <r>    1.4258    0.0000 </r>
       <r>    2.8255    0.0000 </r>
       <r>    4.5168    0.0000 </r>
       <r>    4.5817    0.0000 </r>
       <r>    5.5016    0.0000 </r>
       <r>    5.6086    0.0000 </r>
      </set>
      <set comment="kpoint 25">
       <r>   -8.0329    1.0000 </r>
       <r>   -7.2259    1.0000 </r>
       <r>   -5.8130    1.0000 </r>
       <r>   -5.4092    1.0000 </r>
       <r>   -4.0454    1.0000 </r>
       <r>   -3.5989    1.0000 </r>
       <r>   -1.7942    1.0000 </r>
       <r>   -1.3200    1.0000 </r>
       <r>   -0.9528    1.0000 </r>
       <r>   -0.3463    1.0000 </r>
       <r>    0.1056    1.0000 </r>
       <r>    0.2907    0.9995 </r>
       <r>    0.4001    0.9937 </r>
       <r>    1.0926    0.0082 </r>
       <r>    1.1027    0.0067 </r>
       <r>    2.3841    0.0000 </r>
       <r>    4.7216    0.0000 </r>
       <r>    5.0736    0.0000 </r>
       <r>    5.3461    0.0000 </r>
       <r>    5.8327    0.0000 </r>
      </set>
      <set comment="kpoint 26">
       <r>   -7.7982    1.0000 </r>
       <r>   -7.5290    1.0000 </r>
       <r>   -5.6804    1.0000 </r>
       <r>   -5.5439    1.0000 </r>
       <r>   -3.8913    1.0000 </r>
       <r>   -3.7398    1.0000 </r>
       <r>   -1.3056    1.0000 </r>
       <r>   -1.2634    1.0000 </r>
       <r>   -1.1378    1.0000 </r>
       <r>   -0.8241    1.0000 </r>
       <r>    0.1698    1.0000 </r>
       <r>    0.2737    0.9996 </r>
       <r>    0.5213    0.9494 </r>
       <r>    0.7896    0.3980 </r>
       <r>    1.5004    0.0000 </r>
       <r>    1.9333    0.0000 </r>
       <r>    4.8972    0.0000 </r>
       <r>    5.1071    0.0000 </r>
       <r>    5.7341    0.0000 </r>
       <r>    6.1717    0.0000 </r>
      </set>
      <set comment="kpoint 27">
       <r>   -8.2698    1.0000 </r>
       <r>   -6.4268    1.0000 </r>
       <r>   -6.4268    1.0000 </r>
       <r>   -5.3224    1.0000 </r>
       <r>   -4.1779    1.0000 </r>
       <r>   -2.9186    1.0000 </r>
       <r>   -2.9186    1.0000 </r>
       <r>   -1.3370    1.0000 </r>
       <r>   -0.3568    1.0000 </r>
       <r>   -0.3568    1.0000 </r>
       <r>    0.1613    1.0000 </r>
       <r>    0.4320    0.9884 </r>
       <r>    0.4320    0.9884 </r>
       <r>    0.7787    0.4280 </r>
       <r>    1.4189    0.0000 </r>
       <r>    3.2015    0.0000 </r>
       <r>    4.1255    0.0000 </r>
       <r>    5.0837    0.0000 </r>
       <r>    5.0837    0.0000 </r>
       <r>    5.6452    0.0000 </r>
      </set>
      <set comment="kpoint 28">
       <r>   -8.1075    1.0000 </r>
       <r>   -6.7853    1.0000 </r>
       <r>   -6.3056    1.0000 </r>
       <r>   -5.4886    1.0000 </r>
       <r>   -4.0059    1.0000 </r>
       <r>   -3.0726    1.0000 </r>
       <r>   -2.4695    1.0000 </r>
       <r>   -1.3888    1.0000 </r>
       <r>   -0.6466    1.0000 </r>
       <r>   -0.2840    1.0000 </r>
       <r>   -0.2205    1.0000 </r>
       <r>    0.4514    0.9836 </r>
       <r>    0.7939    0.3865 </r>
       <r>    0.8461    0.2553 </r>
       <r>    1.0664    0.0134 </r>
       <r>    2.9636    0.0000 </r>
       <r>    4.3640    0.0000 </r>
       <r>    5.1894    0.0000 </r>
       <r>    5.7588    0.0000 </r>
       <r>    5.7766    0.0000 </r>
      </set>
      <set comment="kpoint 29">
       <r>   -7.9101    1.0000 </r>
       <r>   -7.1144    1.0000 </r>
       <r>   -6.1639    1.0000 </r>
       <r>   -5.6618    1.0000 </r>
       <r>   -3.8228    1.0000 </r>
       <r>   -3.2490    1.0000 </r>
       <r>   -2.0283    1.0000 </r>
       <r>   -1.3656    1.0000 </r>
       <r>   -0.9037    1.0000 </r>
       <r>   -0.7239    1.0000 </r>
       <r>   -0.0405    1.0000 </r>
       <r>    0.5108    0.9567 </r>
       <r>    0.7383    0.5417 </r>
       <r>    0.8074    0.3505 </r>
       <r>    1.2056    0.0007 </r>
       <r>    2.5748    0.0000 </r>
       <r>    4.7995    0.0000 </r>
       <r>    5.3316    0.0000 </r>
       <r>    5.9475    0.0000 </r>
       <r>    6.0652    0.0000 </r>
      </set>
      <set comment="kpoint 30">
       <r>   -7.6782    1.0000 </r>
       <r>   -7.4127    1.0000 </r>
       <r>   -6.0057    1.0000 </r>
       <r>   -5.8362    1.0000 </r>
       <r>   -3.6320    1.0000 </r>
       <r>   -3.4383    1.0000 </r>
       <r>   -1.5923    1.0000 </r>
       <r>   -1.2720    1.0000 </r>
       <r>   -1.1590    1.0000 </r>
       <r>   -1.1154    1.0000 </r>
       <r>    0.1809    1.0000 </r>
       <r>    0.4417    0.9862 </r>
       <r>    0.6034    0.8551 </r>
       <r>    0.7120    0.6142 </r>
       <r>    1.6553    0.0000 </r>
       <r>    2.1218    0.0000 </r>
       <r>    5.3814    0.0000 </r>
       <r>    5.5076    0.0000 </r>
       <r>    5.7147    0.0000 </r>
       <r>    6.0643    0.0000 </r>
      </set>
      <set comment="kpoint 31">
       <r>   -7.9474    1.0000 </r>
       <r>   -6.6528    1.0000 </r>
       <r>   -6.6528    1.0000 </r>
       <r>   -5.7011    1.0000 </r>
       <r>   -3.8045    1.0000 </r>
       <r>   -2.6775    1.0000 </r>
       <r>   -2.6775    1.0000 </r>
       <r>   -1.3998    1.0000 </r>
       <r>   -0.6977    1.0000 </r>
       <r>   -0.5256    1.0000 </r>
       <r>   -0.5256    1.0000 </r>
       <r>    0.7186    0.5964 </r>
       <r>    0.8654    0.2136 </r>
       <r>    0.8654    0.2136 </r>
       <r>    1.0706    0.0124 </r>
       <r>    2.9092    0.0000 </r>
       <r>    4.4067    0.0000 </r>
       <r>    5.6836    0.0000 </r>
       <r>    5.8660    0.0000 </r>
       <r>    5.8661    0.0000 </r>
      </set>
      <set comment="kpoint 32">
       <r>   -7.7530    1.0000 </r>
       <r>   -6.9733    1.0000 </r>
       <r>   -6.4956    1.0000 </r>
       <r>   -5.9142    1.0000 </r>
       <r>   -3.5911    1.0000 </r>
       <r>   -2.9031    1.0000 </r>
       <r>   -2.2873    1.0000 </r>
       <r>   -1.3401    1.0000 </r>
       <r>   -1.1052    1.0000 </r>
       <r>   -0.8004    1.0000 </r>
       <r>   -0.3583    1.0000 </r>
       <r>    0.3957    0.9943 </r>
       <r>    0.9604    0.0714 </r>
       <r>    1.1624    0.0019 </r>
       <r>    1.3204    0.0000 </r>
       <r>    2.6511    0.0000 </r>
       <r>    4.6692    0.0000 </r>
       <r>    5.7768    0.0000 </r>
       <r>    6.0077    0.0000 </r>
       <r>    6.4190    0.0000 </r>
      </set>
      <set comment="kpoint 33">
       <r>   -7.5251    1.0000 </r>
       <r>   -7.2646    1.0000 </r>
       <r>   -6.3172    1.0000 </r>
       <r>   -6.1217    1.0000 </r>
       <r>   -3.3669    1.0000 </r>
       <r>   -3.1357    1.0000 </r>
       <r>   -1.8977    1.0000 </r>
       <r>   -1.5045    1.0000 </r>
       <r>   -1.2156    1.0000 </r>
       <r>   -1.0332    1.0000 </r>
       <r>   -0.1469    1.0000 </r>
       <r>    0.1055    1.0000 </r>
       <r>    1.0621    0.0144 </r>
       <r>    1.1438    0.0029 </r>
       <r>    1.7945    0.0000 </r>
       <r>    2.2547    0.0000 </r>
       <r>    5.1262    0.0000 </r>
       <r>    5.7248    0.0000 </r>
       <r>    6.0103    0.0000 </r>
       <r>    6.1829    0.0000 </r>
      </set>
      <set comment="kpoint 34">
       <r>   -7.5626    1.0000 </r>
       <r>   -6.8042    1.0000 </r>
       <r>   -6.8042    1.0000 </r>
       <r>   -6.1604    1.0000 </r>
       <r>   -3.3481    1.0000 </r>
       <r>   -2.5572    1.0000 </r>
       <r>   -2.5572    1.0000 </r>
       <r>   -1.4812    1.0000 </r>
       <r>   -1.2497    1.0000 </r>
       <r>   -0.6467    1.0000 </r>
       <r>   -0.6467    1.0000 </r>
       <r>    0.0792    1.0000 </r>
       <r>    1.4099    0.0000 </r>
       <r>    1.4312    0.0000 </r>
       <r>    1.4312    0.0000 </r>
       <r>    2.5581    0.0000 </r>
       <r>    4.7304    0.0000 </r>
       <r>    5.6151    0.0000 </r>
       <r>    6.0685    0.0000 </r>
       <r>    6.0685    0.0000 </r>
      </set>
      <set comment="kpoint 35">
       <r>   -7.3401    1.0000 </r>
       <r>   -7.0864    1.0000 </r>
       <r>   -6.6101    1.0000 </r>
       <r>   -6.3940    1.0000 </r>
       <r>   -3.0929    1.0000 </r>
       <r>   -2.8280    1.0000 </r>
       <r>   -2.2068    1.0000 </r>
       <r>   -1.8489    1.0000 </r>
       <r>   -1.0995    1.0000 </r>
       <r>   -0.8963    1.0000 </r>
       <r>   -0.4464    1.0000 </r>
       <r>   -0.2035    1.0000 </r>
       <r>    1.5112    0.0000 </r>
       <r>    1.5200    0.0000 </r>
       <r>    1.8909    0.0000 </r>
       <r>    2.2882    0.0000 </r>
       <r>    5.0079    0.0000 </r>
       <r>    5.4735    0.0000 </r>
       <r>    5.6291    0.0000 </r>
       <r>    5.7952    0.0000 </r>
      </set>
      <set comment="kpoint 36">
       <r>   -7.1242    1.0000 </r>
       <r>   -6.8802    1.0000 </r>
       <r>   -6.8802    1.0000 </r>
       <r>   -6.6483    1.0000 </r>
       <r>   -2.8077    1.0000 </r>
       <r>   -2.5117    1.0000 </r>
       <r>   -2.5117    1.0000 </r>
       <r>   -2.1853    1.0000 </r>
       <r>   -0.9289    1.0000 </r>
       <r>   -0.7094    1.0000 </r>
       <r>   -0.7094    1.0000 </r>
       <r>   -0.4767    1.0000 </r>
       <r>    1.7848    0.0000 </r>
       <r>    1.9027    0.0000 </r>
       <r>    1.9027    0.0000 </r>
       <r>    2.1748    0.0000 </r>
       <r>    5.0741    0.0000 </r>
       <r>    5.3478    0.0000 </r>
       <r>    5.3478    0.0000 </r>
       <r>    5.3928    0.0000 </r>
      </set>
      <set comment="kpoint 37">
       <r>   -8.8002    1.0000 </r>
       <r>   -5.3192    1.0000 </r>
       <r>   -5.3192    1.0000 </r>
       <r>   -5.3192    1.0000 </r>
       <r>   -4.3148    1.0000 </r>
       <r>   -4.3148    1.0000 </r>
       <r>   -4.3148    1.0000 </r>
       <r>   -0.0050    1.0000 </r>
       <r>   -0.0050    1.0000 </r>
       <r>   -0.0050    1.0000 </r>
       <r>    0.2853    0.9995 </r>
       <r>    0.2853    0.9995 </r>
       <r>    0.2853    0.9995 </r>
       <r>    2.7654    0.0000 </r>
       <r>    3.5371    0.0000 </r>
       <r>    3.5371    0.0000 </r>
       <r>    3.6272    0.0000 </r>
       <r>    3.6272    0.0000 </r>
       <r>    3.6272    0.0000 </r>
       <r>    4.0440    0.0000 </r>
      </set>
      <set comment="kpoint 38">
       <r>   -8.7448    1.0000 </r>
       <r>   -5.7825    1.0000 </r>
       <r>   -5.2955    1.0000 </r>
       <r>   -5.2955    1.0000 </r>
       <r>   -4.3072    1.0000 </r>
       <r>   -4.3072    1.0000 </r>
       <r>   -3.7818    1.0000 </r>
       <r>   -0.2471    1.0000 </r>
       <r>   -0.2471    1.0000 </r>
       <r>    0.0626    1.0000 </r>
       <r>    0.2598    0.9998 </r>
       <r>    0.2598    0.9998 </r>
       <r>    0.3463    0.9980 </r>
       <r>    2.2898    0.0000 </r>
       <r>    3.2559    0.0000 </r>
       <r>    3.4196    0.0000 </r>
       <r>    3.6254    0.0000 </r>
       <r>    3.7884    0.0000 </r>
       <r>    3.7884    0.0000 </r>
       <r>    4.1885    0.0000 </r>
      </set>
      <set comment="kpoint 39">
       <r>   -8.6526    1.0000 </r>
       <r>   -6.2180    1.0000 </r>
       <r>   -5.2590    1.0000 </r>
       <r>   -5.2590    1.0000 </r>
       <r>   -4.2971    1.0000 </r>
       <r>   -4.2971    1.0000 </r>
       <r>   -3.2322    1.0000 </r>
       <r>   -0.4925    1.0000 </r>
       <r>   -0.4925    1.0000 </r>
       <r>    0.1379    1.0000 </r>
       <r>    0.1379    1.0000 </r>
       <r>    0.1752    1.0000 </r>
       <r>    0.4467    0.9849 </r>
       <r>    1.7769    0.0000 </r>
       <r>    2.9040    0.0000 </r>
       <r>    3.0701    0.0000 </r>
       <r>    3.6501    0.0000 </r>
       <r>    4.1385    0.0000 </r>
       <r>    4.1385    0.0000 </r>
       <r>    4.4008    0.0000 </r>
      </set>
      <set comment="kpoint 40">
       <r>   -8.5236    1.0000 </r>
       <r>   -6.6235    1.0000 </r>
       <r>   -5.2147    1.0000 </r>
       <r>   -5.2147    1.0000 </r>
       <r>   -4.2872    1.0000 </r>
       <r>   -4.2872    1.0000 </r>
       <r>   -2.6702    1.0000 </r>
       <r>   -0.7112    1.0000 </r>
       <r>   -0.7112    1.0000 </r>
       <r>   -0.0291    1.0000 </r>
       <r>   -0.0291    1.0000 </r>
       <r>    0.3330    0.9985 </r>
       <r>    0.5859    0.8814 </r>
       <r>    1.2497    0.0002 </r>
       <r>    2.5343    0.0000 </r>
       <r>    2.6435    0.0000 </r>
       <r>    3.7106    0.0000 </r>
       <r>    4.6355    0.0000 </r>
       <r>    4.6355    0.0000 </r>
       <r>    4.6710    0.0000 </r>
      </set>
      <set comment="kpoint 41">
       <r>   -8.3582    1.0000 </r>
       <r>   -6.9976    1.0000 </r>
       <r>   -5.1692    1.0000 </r>
       <r>   -5.1692    1.0000 </r>
       <r>   -4.2800    1.0000 </r>
       <r>   -4.2800    1.0000 </r>
       <r>   -2.1006    1.0000 </r>
       <r>   -0.8840    1.0000 </r>
       <r>   -0.8840    1.0000 </r>
       <r>   -0.1946    1.0000 </r>
       <r>   -0.1946    1.0000 </r>
       <r>    0.5364    0.9373 </r>
       <r>    0.7128    0.6120 </r>
       <r>    0.7633    0.4712 </r>
       <r>    2.1721    0.0000 </r>
       <r>    2.2098    0.0000 </r>
       <r>    3.8094    0.0000 </r>
       <r>    4.8432    0.0000 </r>
       <r>    4.9939    0.0000 </r>
       <r>    5.2386    0.0000 </r>
      </set>
      <set comment="kpoint 42">
       <r>   -8.1566    1.0000 </r>
       <r>   -7.3392    1.0000 </r>
       <r>   -5.1312    1.0000 </r>
       <r>   -5.1312    1.0000 </r>
       <r>   -4.2766    1.0000 </r>
       <r>   -4.2766    1.0000 </r>
       <r>   -1.5278    1.0000 </r>
       <r>   -1.0016    1.0000 </r>
       <r>   -1.0016    1.0000 </r>
       <r>   -0.3237    1.0000 </r>
       <r>   -0.3237    1.0000 </r>
       <r>    0.1660    1.0000 </r>
       <r>    0.7853    0.4098 </r>
       <r>    0.9783    0.0556 </r>
       <r>    1.7967    0.0000 </r>
       <r>    1.8295    0.0000 </r>
       <r>    3.9466    0.0000 </r>
       <r>    4.5741    0.0000 </r>
       <r>    5.3633    0.0000 </r>
       <r>    5.9200    0.0000 </r>
      </set>
      <set comment="kpoint 43">
       <r>   -7.9192    1.0000 </r>
       <r>   -7.6465    1.0000 </r>
       <r>   -5.1094    1.0000 </r>
       <r>   -5.1094    1.0000 </r>
       <r>   -4.2757    1.0000 </r>
       <r>   -4.2757    1.0000 </r>
       <r>   -1.0604    1.0000 </r>
       <r>   -1.0604    1.0000 </r>
       <r>   -0.9560    1.0000 </r>
       <r>   -0.3949    1.0000 </r>
       <r>   -0.3949    1.0000 </r>
       <r>   -0.3904    1.0000 </r>
       <r>    1.0794    0.0105 </r>
       <r>    1.2294    0.0004 </r>
       <r>    1.4177    0.0000 </r>
       <r>    1.5143    0.0000 </r>
       <r>    4.1215    0.0000 </r>
       <r>    4.3320    0.0000 </r>
       <r>    5.7659    0.0000 </r>
       <r>    6.1660    0.0000 </r>
      </set>
      <set comment="kpoint 44">
       <r>   -8.6896    1.0000 </r>
       <r>   -5.7503    1.0000 </r>
       <r>   -5.7503    1.0000 </r>
       <r>   -5.2828    1.0000 </r>
       <r>   -4.2962    1.0000 </r>
       <r>   -3.7919    1.0000 </r>
       <r>   -3.7919    1.0000 </r>
       <r>   -0.5232    1.0000 </r>
       <r>   -0.1739    1.0000 </r>
       <r>   -0.1739    1.0000 </r>
       <r>    0.3248    0.9988 </r>
       <r>    0.3248    0.9988 </r>
       <r>    0.3902    0.9949 </r>
       <r>    1.8365    0.0000 </r>
       <r>    3.0361    0.0000 </r>
       <r>    3.4732    0.0000 </r>
       <r>    3.7517    0.0000 </r>
       <r>    3.8188    0.0000 </r>
       <r>    3.8188    0.0000 </r>
       <r>    4.5652    0.0000 </r>
      </set>
      <set comment="kpoint 45">
       <r>   -8.5977    1.0000 </r>
       <r>   -6.1800    1.0000 </r>
       <r>   -5.6988    1.0000 </r>
       <r>   -5.2669    1.0000 </r>
       <r>   -4.2779    1.0000 </r>
       <r>   -3.8120    1.0000 </r>
       <r>   -3.2643    1.0000 </r>
       <r>   -0.7695    1.0000 </r>
       <r>   -0.4173    1.0000 </r>
       <r>   -0.0519    1.0000 </r>
       <r>    0.2173    0.9999 </r>
       <r>    0.3980    0.9940 </r>
       <r>    0.4329    0.9882 </r>
       <r>    1.3505    0.0000 </r>
       <r>    2.6852    0.0000 </r>
       <r>    3.2835    0.0000 </r>
       <r>    3.8752    0.0000 </r>
       <r>    3.9324    0.0000 </r>
       <r>    4.1825    0.0000 </r>
       <r>    4.7416    0.0000 </r>
      </set>
      <set comment="kpoint 46">
       <r>   -8.4692    1.0000 </r>
       <r>   -6.5812    1.0000 </r>
       <r>   -5.6312    1.0000 </r>
       <r>   -5.2549    1.0000 </r>
       <r>   -4.2508    1.0000 </r>
       <r>   -3.8451    1.0000 </r>
       <r>   -2.7302    1.0000 </r>
       <r>   -0.9647    1.0000 </r>
       <r>   -0.6414    1.0000 </r>
       <r>    0.0772    1.0000 </r>
       <r>    0.1186    1.0000 </r>
       <r>    0.3078    0.9992 </r>
       <r>    0.5852    0.8824 </r>
       <r>    0.8585    0.2279 </r>
       <r>    2.3078    0.0000 </r>
       <r>    2.9126    0.0000 </r>
       <r>    3.9625    0.0000 </r>
       <r>    4.3101    0.0000 </r>
       <r>    4.6849    0.0000 </r>
       <r>    4.9786    0.0000 </r>
      </set>
      <set comment="kpoint 47">
       <r>   -8.3044    1.0000 </r>
       <r>   -6.9520    1.0000 </r>
       <r>   -5.5525    1.0000 </r>
       <r>   -5.2561    1.0000 </r>
       <r>   -4.2127    1.0000 </r>
       <r>   -3.8933    1.0000 </r>
       <r>   -2.1954    1.0000 </r>
       <r>   -1.0970    1.0000 </r>
       <r>   -0.8333    1.0000 </r>
       <r>   -0.0474    1.0000 </r>
       <r>    0.1700    1.0000 </r>
       <r>    0.3357    0.9984 </r>
       <r>    0.3649    0.9970 </r>
       <r>    0.7831    0.4159 </r>
       <r>    1.9307    0.0000 </r>
       <r>    2.4872    0.0000 </r>
       <r>    4.0831    0.0000 </r>
       <r>    4.8364    0.0000 </r>
       <r>    5.1604    0.0000 </r>
       <r>    5.2744    0.0000 </r>
      </set>
      <set comment="kpoint 48">
       <r>   -8.1036    1.0000 </r>
       <r>   -7.2907    1.0000 </r>
       <r>   -5.4693    1.0000 </r>
       <r>   -5.2781    1.0000 </r>
       <r>   -4.1613    1.0000 </r>
       <r>   -3.9553    1.0000 </r>
       <r>   -1.6655    1.0000 </r>
       <r>   -1.1605    1.0000 </r>
       <r>   -0.9865    1.0000 </r>
       <r>   -0.1311    1.0000 </r>
       <r>   -0.1226    1.0000 </r>
       <r>    0.0306    1.0000 </r>
       <r>    0.5956    0.8673 </r>
       <r>    1.0291    0.0255 </r>
       <r>    1.5656    0.0000 </r>
       <r>    2.0645    0.0000 </r>
       <r>    4.2384    0.0000 </r>
       <r>    4.8959    0.0000 </r>
       <r>    5.4691    0.0000 </r>
       <r>    5.6104    0.0000 </r>
      </set>
      <set comment="kpoint 49">
       <r>   -7.8674    1.0000 </r>
       <r>   -7.5962    1.0000 </r>
       <r>   -5.3900    1.0000 </r>
       <r>   -5.3238    1.0000 </r>
       <r>   -4.0974    1.0000 </r>
       <r>   -4.0260    1.0000 </r>
       <r>   -1.1582    1.0000 </r>
       <r>   -1.1437    1.0000 </r>
       <r>   -1.0972    1.0000 </r>
       <r>   -0.6329    1.0000 </r>
       <r>   -0.1327    1.0000 </r>
       <r>   -0.0780    1.0000 </r>
       <r>    0.8918    0.1633 </r>
       <r>    1.2174    0.0005 </r>
       <r>    1.3255    0.0000 </r>
       <r>    1.6722    0.0000 </r>
       <r>    4.4274    0.0000 </r>
       <r>    4.6480    0.0000 </r>
       <r>    5.9776    0.0000 </r>
       <r>    6.1775    0.0000 </r>
      </set>
      <set comment="kpoint 50">
       <r>   -8.5063    1.0000 </r>
       <r>   -6.1180    1.0000 </r>
       <r>   -6.1180    1.0000 </r>
       <r>   -5.2863    1.0000 </r>
       <r>   -4.2426    1.0000 </r>
       <r>   -3.3198    1.0000 </r>
       <r>   -3.3198    1.0000 </r>
       <r>   -0.9949    1.0000 </r>
       <r>   -0.2934    1.0000 </r>
       <r>   -0.2934    1.0000 </r>
       <r>    0.3520    0.9977 </r>
       <r>    0.3520    0.9977 </r>
       <r>    0.5618    0.9119 </r>
       <r>    0.8890    0.1683 </r>
       <r>    2.3388    0.0000 </r>
       <r>    3.3503    0.0000 </r>
       <r>    3.9213    0.0000 </r>
       <r>    4.2570    0.0000 </r>
       <r>    4.2570    0.0000 </r>
       <r>    5.2275    0.0000 </r>
      </set>
      <set comment="kpoint 51">
       <r>   -8.3786    1.0000 </r>
       <r>   -6.5116    1.0000 </r>
       <r>   -6.0346    1.0000 </r>
       <r>   -5.3247    1.0000 </r>
       <r>   -4.1875    1.0000 </r>
       <r>   -3.4005    1.0000 </r>
       <r>   -2.8291    1.0000 </r>
       <r>   -1.1549    1.0000 </r>
       <r>   -0.5280    1.0000 </r>
       <r>   -0.1244    1.0000 </r>
       <r>    0.2567    0.9998 </r>
       <r>    0.4235    0.9901 </r>
       <r>    0.5446    0.9298 </r>
       <r>    0.6016    0.8579 </r>
       <r>    1.9674    0.0000 </r>
       <r>    3.1411    0.0000 </r>
       <r>    4.1311    0.0000 </r>
       <r>    4.3627    0.0000 </r>
       <r>    4.7670    0.0000 </r>
       <r>    5.4338    0.0000 </r>
      </set>
      <set comment="kpoint 52">
       <r>   -8.2149    1.0000 </r>
       <r>   -6.8766    1.0000 </r>
       <r>   -5.9335    1.0000 </r>
       <r>   -5.3874    1.0000 </r>
       <r>   -4.1094    1.0000 </r>
       <r>   -3.5047    1.0000 </r>
       <r>   -2.3445    1.0000 </r>
       <r>   -1.2413    1.0000 </r>
       <r>   -0.7452    1.0000 </r>
       <r>   -0.0375    1.0000 </r>
       <r>    0.0859    1.0000 </r>
       <r>    0.1907    1.0000 </r>
       <r>    0.5405    0.9336 </r>
       <r>    0.7982    0.3748 </r>
       <r>    1.5992    0.0000 </r>
       <r>    2.7659    0.0000 </r>
       <r>    4.5004    0.0000 </r>
       <r>    4.5383    0.0000 </r>
       <r>    5.3739    0.0000 </r>
       <r>    5.5260    0.0000 </r>
      </set>
      <set comment="kpoint 53">
       <r>   -8.0157    1.0000 </r>
       <r>   -7.2107    1.0000 </r>
       <r>   -5.8196    1.0000 </r>
       <r>   -5.4747    1.0000 </r>
       <r>   -4.0086    1.0000 </r>
       <r>   -3.6270    1.0000 </r>
       <r>   -1.8700    1.0000 </r>
       <r>   -1.2557    1.0000 </r>
       <r>   -0.9365    1.0000 </r>
       <r>   -0.4938    1.0000 </r>
       <r>    0.1783    1.0000 </r>
       <r>    0.3318    0.9986 </r>
       <r>    0.4291    0.9890 </r>
       <r>    1.1121    0.0056 </r>
       <r>    1.2459    0.0002 </r>
       <r>    2.3324    0.0000 </r>
       <r>    4.6693    0.0000 </r>
       <r>    5.0936    0.0000 </r>
       <r>    5.3304    0.0000 </r>
       <r>    6.0171    0.0000 </r>
      </set>
      <set comment="kpoint 54">
       <r>   -7.7815    1.0000 </r>
       <r>   -7.5129    1.0000 </r>
       <r>   -5.6997    1.0000 </r>
       <r>   -5.5816    1.0000 </r>
       <r>   -3.8891    1.0000 </r>
       <r>   -3.7587    1.0000 </r>
       <r>   -1.4052    1.0000 </r>
       <r>   -1.2032    1.0000 </r>
       <r>   -1.0932    1.0000 </r>
       <r>   -0.9483    1.0000 </r>
       <r>    0.2216    0.9999 </r>
       <r>    0.3123    0.9991 </r>
       <r>    0.6091    0.8457 </r>
       <r>    0.9147    0.1266 </r>
       <r>    1.4815    0.0000 </r>
       <r>    1.8946    0.0000 </r>
       <r>    4.8682    0.0000 </r>
       <r>    5.0927    0.0000 </r>
       <r>    5.7525    0.0000 </r>
       <r>    6.3029    0.0000 </r>
      </set>
      <set comment="kpoint 55">
       <r>   -8.2521    1.0000 </r>
       <r>   -6.4167    1.0000 </r>
       <r>   -6.4167    1.0000 </r>
       <r>   -5.4246    1.0000 </r>
       <r>   -4.0958    1.0000 </r>
       <r>   -2.9627    1.0000 </r>
       <r>   -2.9627    1.0000 </r>
       <r>   -1.2707    1.0000 </r>
       <r>   -0.3748    1.0000 </r>
       <r>   -0.3748    1.0000 </r>
       <r>   -0.0166    1.0000 </r>
       <r>    0.5098    0.9573 </r>
       <r>    0.5098    0.9573 </r>
       <r>    0.7965    0.3795 </r>
       <r>    1.6043    0.0000 </r>
       <r>    3.1549    0.0000 </r>
       <r>    4.1484    0.0000 </r>
       <r>    4.8813    0.0000 </r>
       <r>    4.8813    0.0000 </r>
       <r>    5.4164    0.0000 </r>
      </set>
      <set comment="kpoint 56">
       <r>   -8.0901    1.0000 </r>
       <r>   -6.7728    1.0000 </r>
       <r>   -6.2989    1.0000 </r>
       <r>   -5.5513    1.0000 </r>
       <r>   -3.9763    1.0000 </r>
       <r>   -3.1243    1.0000 </r>
       <r>   -2.5352    1.0000 </r>
       <r>   -1.3108    1.0000 </r>
       <r>   -0.6189    1.0000 </r>
       <r>   -0.4502    1.0000 </r>
       <r>   -0.1848    1.0000 </r>
       <r>    0.5100    0.9572 </r>
       <r>    0.8328    0.2864 </r>
       <r>    0.8641    0.2161 </r>
       <r>    1.2452    0.0003 </r>
       <r>    2.9251    0.0000 </r>
       <r>    4.3862    0.0000 </r>
       <r>    5.0266    0.0000 </r>
       <r>    5.4902    0.0000 </r>
       <r>    5.5747    0.0000 </r>
      </set>
      <set comment="kpoint 57">
       <r>   -7.8932    1.0000 </r>
       <r>   -7.1002    1.0000 </r>
       <r>   -6.1621    1.0000 </r>
       <r>   -5.6975    1.0000 </r>
       <r>   -3.8316    1.0000 </r>
       <r>   -3.3027    1.0000 </r>
       <r>   -2.1168    1.0000 </r>
       <r>   -1.2799    1.0000 </r>
       <r>   -0.8749    1.0000 </r>
       <r>   -0.8430    1.0000 </r>
       <r>    0.0402    1.0000 </r>
       <r>    0.5549    0.9195 </r>
       <r>    0.8281    0.2978 </r>
       <r>    0.9032    0.1441 </r>
       <r>    1.2169    0.0005 </r>
       <r>    2.5429    0.0000 </r>
       <r>    4.8198    0.0000 </r>
       <r>    5.2010    0.0000 </r>
       <r>    5.7228    0.0000 </r>
       <r>    6.1701    0.0000 </r>
      </set>
      <set comment="kpoint 58">
       <r>   -7.6620    1.0000 </r>
       <r>   -7.3972    1.0000 </r>
       <r>   -6.0117    1.0000 </r>
       <r>   -5.8541    1.0000 </r>
       <r>   -3.6662    1.0000 </r>
       <r>   -3.4870    1.0000 </r>
       <r>   -1.7038    1.0000 </r>
       <r>   -1.2916    1.0000 </r>
       <r>   -1.1848    1.0000 </r>
       <r>   -1.0358    1.0000 </r>
       <r>    0.2974    0.9994 </r>
       <r>    0.5859    0.8813 </r>
       <r>    0.6367    0.7947 </r>
       <r>    0.7378    0.5430 </r>
       <r>    1.6464    0.0000 </r>
       <r>    2.0990    0.0000 </r>
       <r>    5.3984    0.0000 </r>
       <r>    5.3996    0.0000 </r>
       <r>    5.6022    0.0000 </r>
       <r>    6.0799    0.0000 </r>
      </set>
      <set comment="kpoint 59">
       <r>   -7.9305    1.0000 </r>
       <r>   -6.6426    1.0000 </r>
       <r>   -6.6426    1.0000 </r>
       <r>   -5.7362    1.0000 </r>
       <r>   -3.8167    1.0000 </r>
       <r>   -2.7521    1.0000 </r>
       <r>   -2.7521    1.0000 </r>
       <r>   -1.3069    1.0000 </r>
       <r>   -0.8576    1.0000 </r>
       <r>   -0.4540    1.0000 </r>
       <r>   -0.4540    1.0000 </r>
       <r>    0.8961    0.1559 </r>
       <r>    0.8966    0.1551 </r>
       <r>    0.8966    0.1551 </r>
       <r>    1.0865    0.0092 </r>
       <r>    2.8842    0.0000 </r>
       <r>    4.4285    0.0000 </r>
       <r>    5.5445    0.0000 </r>
       <r>    5.6358    0.0000 </r>
       <r>    5.6358    0.0000 </r>
      </set>
      <set comment="kpoint 60">
       <r>   -7.7367    1.0000 </r>
       <r>   -6.9606    1.0000 </r>
       <r>   -6.4887    1.0000 </r>
       <r>   -5.9316    1.0000 </r>
       <r>   -3.6334    1.0000 </r>
       <r>   -2.9810    1.0000 </r>
       <r>   -2.3840    1.0000 </r>
       <r>   -1.2547    1.0000 </r>
       <r>   -1.2361    1.0000 </r>
       <r>   -0.7052    1.0000 </r>
       <r>   -0.2511    1.0000 </r>
       <r>    0.5651    0.9081 </r>
       <r>    0.9852    0.0503 </r>
       <r>    1.1782    0.0013 </r>
       <r>    1.3324    0.0000 </r>
       <r>    2.6330    0.0000 </r>
       <r>    4.6892    0.0000 </r>
       <r>    5.6638    0.0000 </r>
       <r>    5.8025    0.0000 </r>
       <r>    6.2890    0.0000 </r>
      </set>
      <set comment="kpoint 61">
       <r>   -7.5097    1.0000 </r>
       <r>   -7.2504    1.0000 </r>
       <r>   -6.3153    1.0000 </r>
       <r>   -6.1273    1.0000 </r>
       <r>   -3.4296    1.0000 </r>
       <r>   -3.2101    1.0000 </r>
       <r>   -2.0149    1.0000 </r>
       <r>   -1.6400    1.0000 </r>
       <r>   -1.1062    1.0000 </r>
       <r>   -0.9263    1.0000 </r>
       <r>   -0.0123    1.0000 </r>
       <r>    0.2608    0.9998 </r>
       <r>    1.0824    0.0099 </r>
       <r>    1.1611    0.0020 </r>
       <r>    1.7935    0.0000 </r>
       <r>    2.2442    0.0000 </r>
       <r>    5.1432    0.0000 </r>
       <r>    5.7374    0.0000 </r>
       <r>    5.8771    0.0000 </r>
       <r>    5.9504    0.0000 </r>
      </set>
      <set comment="kpoint 62">
       <r>   -7.5472    1.0000 </r>
       <r>   -6.7938    1.0000 </r>
       <r>   -6.7938    1.0000 </r>
       <r>   -6.1659    1.0000 </r>
       <r>   -3.4152    1.0000 </r>
       <r>   -2.6566    1.0000 </r>
       <r>   -2.6566    1.0000 </r>
       <r>   -1.6248    1.0000 </r>
       <r>   -1.1313    1.0000 </r>
       <r>   -0.5243    1.0000 </r>
       <r>   -0.5243    1.0000 </r>
       <r>    0.2460    0.9998 </r>
       <r>    1.4230    0.0000 </r>
       <r>    1.4435    0.0000 </r>
       <r>    1.4435    0.0000 </r>
       <r>    2.5490    0.0000 </r>
       <r>    4.7487    0.0000 </r>
       <r>    5.5518    0.0000 </r>
       <r>    6.0510    0.0000 </r>
       <r>    6.0510    0.0000 </r>
      </set>
      <set comment="kpoint 63">
       <r>   -7.3256    1.0000 </r>
       <r>   -7.0737    1.0000 </r>
       <r>   -6.6031    1.0000 </r>
       <r>   -6.3920    1.0000 </r>
       <r>   -3.1780    1.0000 </r>
       <r>   -2.9236    1.0000 </r>
       <r>   -2.3244    1.0000 </r>
       <r>   -1.9814    1.0000 </r>
       <r>   -0.9731    1.0000 </r>
       <r>   -0.7681    1.0000 </r>
       <r>   -0.3032    1.0000 </r>
       <r>   -0.0453    1.0000 </r>
       <r>    1.5232    0.0000 </r>
       <r>    1.5321    0.0000 </r>
       <r>    1.8942    0.0000 </r>
       <r>    2.2849    0.0000 </r>
       <r>    5.0223    0.0000 </r>
       <r>    5.4814    0.0000 </r>
       <r>    5.5918    0.0000 </r>
       <r>    5.7732    0.0000 </r>
      </set>
[...]
       <r>   -3.5304    1.0000 </r>
       <r>    1.0474    0.0187 </r>
       <r>    1.2447    0.0003 </r>
       <r>    1.2447    0.0003 </r>
       <r>    1.5224    0.0000 </r>
       <r>    1.9660    0.0000 </r>
       <r>    2.0165    0.0000 </r>
       <r>    2.0165    0.0000 </r>
       <r>    2.1765    0.0000 </r>
       <r>    4.5176    0.0000 </r>
       <r>    4.7483    0.0000 </r>
       <r>    4.7483    0.0000 </r>
       <r>    4.8214    0.0000 </r>
      </set>
      <set comment="kpoint 117">
       <r>   -7.0433    1.0000 </r>
       <r>   -6.5489    1.0000 </r>
       <r>   -6.5489    1.0000 </r>
       <r>   -6.5489    1.0000 </r>
       <r>   -3.8611    1.0000 </r>
       <r>   -3.8611    1.0000 </r>
       <r>   -3.8611    1.0000 </r>
       <r>   -3.3021    1.0000 </r>
       <r>    1.1589    0.0021 </r>
       <r>    1.1589    0.0021 </r>
       <r>    1.1589    0.0021 </r>
       <r>    1.8299    0.0000 </r>
       <r>    1.8299    0.0000 </r>
       <r>    1.8299    0.0000 </r>
       <r>    2.2051    0.0000 </r>
       <r>    2.2051    0.0000 </r>
       <r>    4.0652    0.0000 </r>
       <r>    4.8227    0.0000 </r>
       <r>    4.8227    0.0000 </r>
       <r>    4.8227    0.0000 </r>
      </set>
      <set comment="kpoint 118">
       <r>   -6.8796    1.0000 </r>
       <r>   -6.7108    1.0000 </r>
       <r>   -6.5193    1.0000 </r>
       <r>   -6.5193    1.0000 </r>
       <r>   -3.9522    1.0000 </r>
       <r>   -3.9522    1.0000 </r>
       <r>   -3.7405    1.0000 </r>
       <r>   -3.5508    1.0000 </r>
       <r>    1.2797    0.0001 </r>
       <r>    1.2797    0.0001 </r>
       <r>    1.6610    0.0000 </r>
       <r>    1.9127    0.0000 </r>
       <r>    1.9127    0.0000 </r>
       <r>    1.9569    0.0000 </r>
       <r>    2.0592    0.0000 </r>
       <r>    2.0838    0.0000 </r>
       <r>    4.1942    0.0000 </r>
       <r>    4.5165    0.0000 </r>
       <r>    4.7299    0.0000 </r>
       <r>    4.7299    0.0000 </r>
      </set>
      <set comment="kpoint 119">
       <r>   -6.7480    1.0000 </r>
       <r>   -6.6235    1.0000 </r>
       <r>   -6.6235    1.0000 </r>
       <r>   -6.5567    1.0000 </r>
       <r>   -3.9714    1.0000 </r>
       <r>   -3.8979    1.0000 </r>
       <r>   -3.8979    1.0000 </r>
       <r>   -3.7601    1.0000 </r>
       <r>    1.5494    0.0000 </r>
       <r>    1.6862    0.0000 </r>
       <r>    1.6862    0.0000 </r>
       <r>    1.9369    0.0000 </r>
       <r>    2.0253    0.0000 </r>
       <r>    2.0450    0.0000 </r>
       <r>    2.0450    0.0000 </r>
       <r>    2.1576    0.0000 </r>
       <r>    4.1662    0.0000 </r>
       <r>    4.3977    0.0000 </r>
       <r>    4.3977    0.0000 </r>
       <r>    4.4831    0.0000 </r>
      </set>
      <set comment="kpoint 120">
       <r>   -6.6606    1.0000 </r>
       <r>   -6.5938    1.0000 </r>
       <r>   -6.5938    1.0000 </r>
       <r>   -6.5938    1.0000 </r>
       <r>   -3.9918    1.0000 </r>
       <r>   -3.9918    1.0000 </r>
       <r>   -3.9918    1.0000 </r>
       <r>   -3.9184    1.0000 </r>
       <r>    1.9584    0.0000 </r>
       <r>    1.9584    0.0000 </r>
       <r>    1.9584    0.0000 </r>
       <r>    2.0798    0.0000 </r>
       <r>    2.0798    0.0000 </r>
       <r>    2.0798    0.0000 </r>
       <r>    2.1249    0.0000 </r>
       <r>    2.1249    0.0000 </r>
       <r>    3.9998    0.0000 </r>
       <r>    4.1473    0.0000 </r>
       <r>    4.1473    0.0000 </r>
       <r>    4.1473    0.0000 </r>
      </set>
     </set>
    </set>
   </array>
  </eigenvalues>
  <separator name="orbital magnetization" >
   <v name="MAGDIPOLOUT">      0.00000000      0.00000000      0.00000000</v>
  </separator>
  <dos>
   <i name="efermi">      0.75307570 </i>
   <total>
    <array>
     <dimension dim="1">gridpoints</dimension>
     <dimension dim="2">spin</dimension>
     <field>energy</field>
     <field>total</field>
     <field>integrated</field>
     <set>
      <set comment="spin 1">
       <r>   -10.8557     0.0000     0.0000 </r>
       <r>   -10.7915     0.0000     0.0000 </r>
       <r>   -10.7272     0.0000     0.0000 </r>
       <r>   -10.6630     0.0000     0.0000 </r>
       <r>   -10.5987     0.0000     0.0000 </r>
       <r>   -10.5345     0.0000     0.0000 </r>
       <r>   -10.4702     0.0000     0.0000 </r>
       <r>   -10.4060     0.0000     0.0000 </r>
       <r>   -10.3417     0.0000     0.0000 </r>
       <r>   -10.2775     0.0000     0.0000 </r>
       <r>   -10.2132     0.0000     0.0000 </r>
       <r>   -10.1490     0.0000     0.0000 </r>
       <r>   -10.0847     0.0000     0.0000 </r>
       <r>   -10.0205     0.0000     0.0000 </r>
       <r>    -9.9562     0.0000     0.0000 </r>
       <r>    -9.8920     0.0000     0.0000 </r>
       <r>    -9.8277     0.0000     0.0000 </r>
       <r>    -9.7635     0.0000     0.0000 </r>
       <r>    -9.6992     0.0000     0.0000 </r>
       <r>    -9.6350     0.0000     0.0000 </r>
       <r>    -9.5707     0.0000     0.0000 </r>
       <r>    -9.5065     0.0000     0.0000 </r>
       <r>    -9.4422     0.0000     0.0000 </r>
       <r>    -9.3780     0.0000     0.0000 </r>
       <r>    -9.3137     0.0001     0.0000 </r>
       <r>    -9.2495     0.0004     0.0000 </r>
       <r>    -9.1852     0.0016     0.0001 </r>
       <r>    -9.1210     0.0056     0.0005 </r>
       <r>    -9.0567     0.0167     0.0016 </r>
       <r>    -8.9925     0.0419     0.0043 </r>
       <r>    -8.9282     0.0901     0.0100 </r>
       <r>    -8.8640     0.1673     0.0208 </r>
       <r>    -8.7997     0.2728     0.0383 </r>
       <r>    -8.7355     0.3971     0.0638 </r>
       <r>    -8.6712     0.5265     0.0977 </r>
       <r>    -8.6070     0.6496     0.1394 </r>
       <r>    -8.5427     0.7604     0.1882 </r>
       <r>    -8.4785     0.8586     0.2434 </r>
       <r>    -8.4142     0.9464     0.3042 </r>
       <r>    -8.3500     1.0265     0.3702 </r>
       <r>    -8.2858     1.1012     0.4409 </r>
       <r>    -8.2215     1.1720     0.5162 </r>
       <r>    -8.1573     1.2397     0.5959 </r>
       <r>    -8.0930     1.3045     0.6797 </r>
       <r>    -8.0288     1.3675     0.7675 </r>
       <r>    -7.9645     1.4299     0.8594 </r>
       <r>    -7.9003     1.4911     0.9552 </r>
       <r>    -7.8360     1.5501     1.0548 </r>
       <r>    -7.7718     1.6079     1.1581 </r>
       <r>    -7.7075     1.6673     1.2652 </r>
       <r>    -7.6433     1.7287     1.3763 </r>
       <r>    -7.5790     1.7885     1.4912 </r>
       <r>    -7.5148     1.8449     1.6097 </r>
       <r>    -7.4505     1.9019     1.7319 </r>
       <r>    -7.3863     1.9656     1.8582 </r>
       <r>    -7.3220     2.0351     1.9890 </r>
       <r>    -7.2578     2.1029     2.1241 </r>
       <r>    -7.1935     2.1655     2.2632 </r>
       <r>    -7.1293     2.2302     2.4065 </r>
       <r>    -7.0650     2.3082     2.5548 </r>
       <r>    -7.0008     2.4025     2.7092 </r>
       <r>    -6.9365     2.5064     2.8702 </r>
       <r>    -6.8723     2.6139     3.0381 </r>
       <r>    -6.8080     2.7292     3.2135 </r>
       <r>    -6.7438     2.8660     3.3976 </r>
       <r>    -6.6795     3.0306     3.5923 </r>
       <r>    -6.6153     3.2038     3.7982 </r>
       <r>    -6.5510     3.3440     4.0130 </r>
       <r>    -6.4868     3.4149     4.2324 </r>
       <r>    -6.4225     3.4119     4.4517 </r>
       <r>    -6.3583     3.3603     4.6675 </r>
       <r>    -6.2940     3.2931     4.8791 </r>
       <r>    -6.2298     3.2283     5.0865 </r>
       <r>    -6.1655     3.1619     5.2897 </r>
       <r>    -6.1013     3.0792     5.4875 </r>
       <r>    -6.0370     2.9721     5.6785 </r>
       <r>    -5.9728     2.8469     5.8614 </r>
       <r>    -5.9085     2.7227     6.0363 </r>
       <r>    -5.8443     2.6236     6.2049 </r>
       <r>    -5.7800     2.5618     6.3695 </r>
       <r>    -5.7158     2.5174     6.5312 </r>
       <r>    -5.6515     2.4442     6.6883 </r>
       <r>    -5.5873     2.3094     6.8366 </r>
       <r>    -5.5230     2.1314     6.9736 </r>
       <r>    -5.4588     1.9722     7.1003 </r>
       <r>    -5.3945     1.8827     7.2212 </r>
       <r>    -5.3303     1.8526     7.3403 </r>
       <r>    -5.2660     1.8146     7.4569 </r>
       <r>    -5.2018     1.7001     7.5661 </r>
       <r>    -5.1375     1.4960     7.6622 </r>
       <r>    -5.0733     1.2511     7.7426 </r>
       <r>    -5.0090     1.0331     7.8090 </r>
       <r>    -4.9448     0.8825     7.8657 </r>
       <r>    -4.8805     0.7966     7.9168 </r>
       <r>    -4.8163     0.7457     7.9648 </r>
       <r>    -4.7520     0.6995     8.0097 </r>
       <r>    -4.6878     0.6472     8.0513 </r>
       <r>    -4.6235     0.6051     8.0902 </r>
       <r>    -4.5593     0.6125     8.1295 </r>
       <r>    -4.4950     0.7153     8.1755 </r>
       <r>    -4.4308     0.9346     8.2355 </r>
       <r>    -4.3665     1.2358     8.3149 </r>
       <r>    -4.3023     1.5314     8.4133 </r>
       <r>    -4.2381     1.7420     8.5252 </r>
       <r>    -4.1738     1.8783     8.6459 </r>
       <r>    -4.1096     2.0619     8.7784 </r>
       <r>    -4.0453     2.4469     8.9356 </r>
       <r>    -3.9811     3.0929     9.1343 </r>
       <r>    -3.9168     3.8858     9.3840 </r>
       <r>    -3.8526     4.5775     9.6781 </r>
       <r>    -3.7883     4.9301     9.9948 </r>
       <r>    -3.7241     4.8626    10.3072 </r>
       <r>    -3.6598     4.4851    10.5954 </r>
       <r>    -3.5956     4.0017    10.8525 </r>
       <r>    -3.5313     3.5778    11.0824 </r>
       <r>    -3.4671     3.2750    11.2928 </r>
       <r>    -3.4028     3.0713    11.4901 </r>
       <r>    -3.3386     2.9157    11.6775 </r>
       <r>    -3.2743     2.7640    11.8551 </r>
       <r>    -3.2101     2.5906    12.0215 </r>
       <r>    -3.1458     2.3966    12.1755 </r>
       <r>    -3.0816     2.2154    12.3178 </r>
       <r>    -3.0173     2.0874    12.4519 </r>
       <r>    -2.9531     2.0165    12.5815 </r>
       <r>    -2.8888     1.9676    12.7079 </r>
       <r>    -2.8246     1.9131    12.8308 </r>
       <r>    -2.7603     1.8581    12.9502 </r>
       <r>    -2.6961     1.8100    13.0665 </r>
       <r>    -2.6318     1.7458    13.1787 </r>
       <r>    -2.5676     1.6405    13.2841 </r>
       <r>    -2.5033     1.5154    13.3814 </r>
       <r>    -2.4391     1.4285    13.4732 </r>
       <r>    -2.3748     1.4084    13.5637 </r>
       <r>    -2.3106     1.4175    13.6548 </r>
       <r>    -2.2463     1.3961    13.7445 </r>
       <r>    -2.1821     1.3307    13.8300 </r>
       <r>    -2.1178     1.2616    13.9110 </r>
       <r>    -2.0536     1.2245    13.9897 </r>
       <r>    -1.9893     1.2052    14.0671 </r>
       <r>    -1.9251     1.1611    14.1417 </r>
       <r>    -1.8608     1.0796    14.2111 </r>
       <r>    -1.7966     1.0001    14.2753 </r>
       <r>    -1.7323     0.9750    14.3380 </r>
       <r>    -1.6681     1.0148    14.4032 </r>
       <r>    -1.6038     1.0836    14.4728 </r>
       <r>    -1.5396     1.1532    14.5469 </r>
       <r>    -1.4753     1.2544    14.6275 </r>
       <r>    -1.4111     1.4648    14.7216 </r>
       <r>    -1.3468     1.8411    14.8399 </r>
       <r>    -1.2826     2.3627    14.9917 </r>
       <r>    -1.2183     2.9388    15.1805 </r>
       <r>    -1.1541     3.4621    15.4029 </r>
       <r>    -1.0898     3.8596    15.6509 </r>
       <r>    -1.0256     4.1111    15.9150 </r>
       <r>    -0.9613     4.2383    16.1874 </r>
       <r>    -0.8971     4.2781    16.4622 </r>
       <r>    -0.8328     4.2544    16.7356 </r>
       <r>    -0.7686     4.1732    17.0037 </r>
       <r>    -0.7043     4.0480    17.2638 </r>
       <r>    -0.6401     3.9247    17.5159 </r>
       <r>    -0.5758     3.8638    17.7642 </r>
       <r>    -0.5116     3.8906    18.0141 </r>
       <r>    -0.4473     3.9711    18.2693 </r>
       <r>    -0.3831     4.0446    18.5291 </r>
       <r>    -0.3188     4.0768    18.7911 </r>
       <r>    -0.2546     4.0796    19.0532 </r>
       <r>    -0.1904     4.0931    19.3162 </r>
       <r>    -0.1261     4.1576    19.5833 </r>
       <r>    -0.0619     4.2910    19.8590 </r>
       <r>     0.0024     4.4755    20.1465 </r>
       <r>     0.0666     4.6692    20.4465 </r>
       <r>     0.1309     4.8381    20.7574 </r>
       <r>     0.1951     4.9787    21.0772 </r>
       <r>     0.2594     5.1070    21.4053 </r>
       <r>     0.3236     5.2324    21.7415 </r>
       <r>     0.3879     5.3424    22.0848 </r>
       <r>     0.4521     5.4085    22.4323 </r>
       <r>     0.5164     5.4023    22.7794 </r>
       <r>     0.5806     5.3166    23.1209 </r>
       <r>     0.6449     5.1835    23.4540 </r>
       <r>     0.7091     5.0668    23.7795 </r>
       <r>     0.7734     5.0165    24.1018 </r>
       <r>     0.8376     5.0209    24.4244 </r>
       <r>     0.9019     5.0138    24.7465 </r>
       <r>     0.9661     4.9414    25.0640 </r>
       <r>     1.0304     4.8168    25.3735 </r>
       <r>     1.0946     4.6989    25.6754 </r>
       <r>     1.1589     4.6266    25.9727 </r>
       <r>     1.2231     4.5878    26.2674 </r>
       <r>     1.2874     4.5474    26.5596 </r>
       <r>     1.3516     4.4893    26.8480 </r>
       <r>     1.4159     4.4244    27.1323 </r>
       <r>     1.4801     4.3652    27.4127 </r>
       <r>     1.5444     4.3055    27.6894 </r>
       <r>     1.6086     4.2285    27.9610 </r>
       <r>     1.6729     4.1351    28.2267 </r>
       <r>     1.7371     4.0528    28.4871 </r>
       <r>     1.8014     4.0061    28.7445 </r>
       <r>     1.8656     3.9801    29.0002 </r>
       <r>     1.9299     3.9231    29.2523 </r>
       <r>     1.9941     3.7921    29.4959 </r>
       <r>     2.0584     3.5921    29.7267 </r>
       <r>     2.1226     3.3647    29.9429 </r>
       <r>     2.1869     3.1396    30.1446 </r>
       <r>     2.2511     2.9104    30.3316 </r>
       <r>     2.3154     2.6594    30.5024 </r>
       <r>     2.3796     2.3963    30.6564 </r>
       <r>     2.4439     2.1589    30.7951 </r>
       <r>     2.5081     1.9746    30.9220 </r>
       <r>     2.5724     1.8322    31.0397 </r>
       <r>     2.6366     1.6991    31.1489 </r>
       <r>     2.7009     1.5587    31.2490 </r>
       <r>     2.7651     1.4219    31.3404 </r>
       <r>     2.8294     1.3044    31.4242 </r>
       <r>     2.8936     1.2051    31.5016 </r>
       <r>     2.9579     1.1110    31.5730 </r>
       <r>     3.0221     1.0148    31.6382 </r>
       <r>     3.0864     0.9202    31.6973 </r>
       <r>     3.1506     0.8326    31.7508 </r>
       <r>     3.2149     0.7534    31.7992 </r>
       <r>     3.2791     0.6850    31.8432 </r>
       <r>     3.3434     0.6370    31.8841 </r>
       <r>     3.4076     0.6223    31.9241 </r>
       <r>     3.4719     0.6476    31.9657 </r>
       <r>     3.5361     0.7092    32.0113 </r>
       <r>     3.6004     0.7961    32.0624 </r>
       <r>     3.6646     0.8994    32.1202 </r>
       <r>     3.7289     1.0175    32.1856 </r>
       <r>     3.7931     1.1538    32.2597 </r>
       <r>     3.8573     1.3076    32.3437 </r>
       <r>     3.9216     1.4712    32.4383 </r>
       <r>     3.9858     1.6375    32.5435 </r>
       <r>     4.0501     1.8060    32.6595 </r>
       <r>     4.1143     1.9789    32.7867 </r>
       <r>     4.1786     2.1553    32.9251 </r>
       <r>     4.2428     2.3349    33.0751 </r>
       <r>     4.3071     2.5227    33.2372 </r>
       <r>     4.3713     2.7215    33.4121 </r>
       <r>     4.4356     2.9235    33.5999 </r>
       <r>     4.4998     3.1188    33.8003 </r>
       <r>     4.5641     3.3118    34.0131 </r>
       <r>     4.6283     3.5216    34.2393 </r>
       <r>     4.6926     3.7642    34.4812 </r>
       <r>     4.7568     4.0386    34.7407 </r>
       <r>     4.8211     4.3286    35.0188 </r>
       <r>     4.8853     4.6161    35.3153 </r>
       <r>     4.9496     4.8825    35.6290 </r>
       <r>     5.0138     5.0960    35.9565 </r>
       <r>     5.0781     5.2082    36.2911 </r>
       <r>     5.1423     5.1842    36.6242 </r>
       <r>     5.2066     5.0346    36.9476 </r>
       <r>     5.2708     4.8076    37.2565 </r>
       <r>     5.3351     4.5516    37.5490 </r>
       <r>     5.3993     4.2906    37.8246 </r>
       <r>     5.4636     4.0272    38.0834 </r>
       <r>     5.5278     3.7556    38.3247 </r>
       <r>     5.5921     3.4713    38.5477 </r>
       <r>     5.6563     3.1765    38.7518 </r>
       <r>     5.7206     2.8787    38.9367 </r>
       <r>     5.7848     2.5861    39.1029 </r>
       <r>     5.8491     2.3059    39.2510 </r>
       <r>     5.9133     2.0473    39.3826 </r>
       <r>     5.9776     1.8192    39.4995 </r>
       <r>     6.0418     1.6213    39.6036 </r>
       <r>     6.1061     1.4408    39.6962 </r>
       <r>     6.1703     1.2587    39.7771 </r>
       <r>     6.2346     1.0608    39.8452 </r>
       <r>     6.2988     0.8462    39.8996 </r>
       <r>     6.3631     0.6276    39.9399 </r>
       <r>     6.4273     0.4256    39.9672 </r>
       <r>     6.4916     0.2599    39.9839 </r>
       <r>     6.5558     0.1410    39.9930 </r>
       <r>     6.6201     0.0672    39.9973 </r>
       <r>     6.6843     0.0278    39.9991 </r>
       <r>     6.7486     0.0099    39.9997 </r>
       <r>     6.8128     0.0030    39.9999 </r>
       <r>     6.8771     0.0008    40.0000 </r>
       <r>     6.9413     0.0002    40.0000 </r>
       <r>     7.0056     0.0000    40.0000 </r>
       <r>     7.0698     0.0000    40.0000 </r>
       <r>     7.1341     0.0000    40.0000 </r>
       <r>     7.1983     0.0000    40.0000 </r>
       <r>     7.2626     0.0000    40.0000 </r>
       <r>     7.3268     0.0000    40.0000 </r>
       <r>     7.3911     0.0000    40.0000 </r>
       <r>     7.4553     0.0000    40.0000 </r>
       <r>     7.5196     0.0000    40.0000 </r>
       <r>     7.5838     0.0000    40.0000 </r>
       <r>     7.6481     0.0000    40.0000 </r>
       <r>     7.7123     0.0000    40.0000 </r>
       <r>     7.7766     0.0000    40.0000 </r>
       <r>     7.8408     0.0000    40.0000 </r>
       <r>     7.9050     0.0000    40.0000 </r>
       <r>     7.9693     0.0000    40.0000 </r>
       <r>     8.0335     0.0000    40.0000 </r>
       <r>     8.0978     0.0000    40.0000 </r>
       <r>     8.1620     0.0000    40.0000 </r>
       <r>     8.2263     0.0000    40.0000 </r>
       <r>     8.2905     0.0000    40.0000 </r>
       <r>     8.3548     0.0000    40.0000 </r>
       <r>     8.4190     0.0000    40.0000 </r>
      </set>
     </set>
    </array>
   </total>
  </dos>
 </calculation>
 <structure name="finalpos" >
  <crystal>
   <varray name="basis" >
    <v>       5.76286300       0.00000000       0.00000000 </v>
    <v>       0.00000000       5.76286300       0.00000000 </v>
    <v>       0.00000000       0.00000000       5.76286300 </v>
   </varray>
   <i name="volume">    191.38808007 </i>
   <varray name="rec_basis" >
    <v>       0.17352486       0.00000000       0.00000000 </v>
    <v>       0.00000000       0.17352486       0.00000000 </v>
    <v>       0.00000000       0.00000000       0.17352486 </v>
   </varray>
  </crystal>
  <varray name="positions" >
   <v>       0.75000000       0.75000000       0.75000000 </v>
   <v>       0.50000000       0.00000000       0.00000000 </v>
   <v>       0.75000000       0.25000000       0.25000000 </v>
   <v>       0.50000000       0.50000000       0.50000000 </v>
   <v>       0.25000000       0.75000000       0.25000000 </v>
   <v>       0.00000000       0.00000000       0.50000000 </v>
   <v>       0.25000000       0.25000000       0.75000000 </v>
   <v>       0.00000000       0.50000000       0.00000000 </v>
  </varray>
 </structure>
</modeling>
