                                        
   1.00000000000000     
    -1.810631   -1.810631    0.000000
    -1.810631    0.000000   -1.810631
     0.000000   -1.810631   -1.810631
   Cu
     1
Direct
  0.000000  0.000000  0.000000
 
   40   40   40
 0.17720700848E+03 0.17429929385E+03 0.16584669407E+03 0.15261786394E+03 0.13576114796E+03
 0.11663896418E+03 0.96652128229E+02 0.77088399325E+02 0.59016261175E+02 0.43227190285E+02
 0.30215489224E+02 0.20180247484E+02 0.13039617253E+02 0.84577317246E+01 0.58913397914E+01
 0.46617679048E+01 0.40520142181E+01 0.36165539947E+01 0.33190012875E+01 0.31486908659E+01
 0.30935714673E+01 0.31486908659E+01 0.33190012875E+01 0.36165539947E+01 0.40520142181E+01
 0.46617679048E+01 0.58913397914E+01 0.84577317246E+01 0.13039617253E+02 0.20180247484E+02
 0.30215489224E+02 0.43227190285E+02 0.59016261175E+02 0.77088399325E+02 0.96652128229E+02
 0.11663896418E+03 0.13576114796E+03 0.15261786394E+03 0.16584669407E+03 0.17429929385E+03
 0.17429929385E+03 0.16861987199E+03 0.15778472169E+03 0.14275910038E+03 0.12480545548E+03
 0.10531040456E+03 0.85619690903E+02 0.66909296905E+02 0.50104693869E+02 0.35843571468E+02
 0.24467847358E+02 0.16031761132E+02 0.10321538651E+02 0.68911940451E+01 0.51217170927E+01
 0.43052660613E+01 0.38035852326E+01 0.34406597454E+01 0.32103568561E+01 0.30998099212E+01
 0.30998099009E+01 0.32103568022E+01 0.34406596737E+01 0.38035851668E+01 0.43052660221E+01
 0.51217170959E+01 0.68911940922E+01 0.10321538732E+02 0.16031761223E+02 0.24467847430E+02
 0.35843571491E+02 0.50104693818E+02 0.66909296771E+02 0.85619690687E+02 0.10531040429E+03
 0.12480545518E+03 0.14275910009E+03 0.15778472144E+03 0.16861987182E+03 0.17429929379E+03
 0.16584669407E+03 0.15778472169E+03 0.14516595639E+03 0.12908475698E+03 0.11084104550E+03
 0.91773780875E+02 0.73116811802E+02 0.55896675590E+02 0.40875389395E+02 0.28528349416E+02
 0.19043640633E+02 0.12334468976E+02 0.80656482042E+01 0.57007736743E+01 0.45746395352E+01
 0.39933436876E+01 0.35703838531E+01 0.32823468049E+01 0.31178095209E+01 0.30646072048E+01
 0.31178094565E+01 0.32823466954E+01 0.35703837317E+01 0.39933435932E+01 0.45746395010E+01
 0.57007737200E+01 0.80656483266E+01 0.12334469150E+02 0.19043640811E+02 0.28528349542E+02
 0.40875389413E+02 0.55896675459E+02 0.73116811505E+02 0.91773780426E+02 0.11084104495E+03
 0.12908475638E+03 0.14516595585E+03 0.15778472127E+03 0.16584669384E+03 0.16861987182E+03
 0.15261786394E+03 0.14275910038E+03 0.12908475698E+03 0.11274316515E+03 0.94999376700E+02
 0.77086263352E+02 0.60086601859E+02 0.44856525804E+02 0.31986625545E+02 0.21789362296E+02
 0.14302871884E+02 0.93087006385E+01 0.63680570658E+01 0.48821826641E+01 0.41764220915E+01
 0.37018147218E+01 0.33608261169E+01 0.31455317811E+01 0.30424693784E+01 0.30424693441E+01
 0.31455316869E+01 0.33608259887E+01 0.37018145964E+01 0.41764220110E+01 0.48821826633E+01
 0.63680571644E+01 0.93087008306E+01 0.14302872137E+02 0.21789362548E+02 0.31986625718E+02
 0.44856525819E+02 0.60086601657E+02 0.77086262910E+02 0.94999376044E+02 0.11274316435E+03
 0.12908475615E+03 0.14275909967E+03 0.15261786345E+03 0.15778472127E+03 0.15778472144E+03
 0.13576114796E+03 0.12480545548E+03 0.11084104550E+03 0.94999376700E+02 0.78452061940E+02
 0.62285921181E+02 0.47411293335E+02 0.34506356193E+02 0.23990496281E+02 0.16017558463E+02
 0.10484434093E+02 0.70571528299E+01 0.52196467367E+01 0.43469216467E+01 0.38278853743E+01
 0.34410031937E+01 0.31799177430E+01 0.30315634694E+01 0.29837098224E+01 0.30315634286E+01
 0.31799176673E+01 0.34410030971E+01 0.38278852808E+01 0.43469215901E+01 0.52196467538E+01
 0.70571529480E+01 0.10484434317E+02 0.16017558761E+02 0.23990496587E+02 0.34506356411E+02
 0.47411293363E+02 0.62285920938E+02 0.78452061397E+02 0.94999375900E+02 0.11084104455E+03
 0.12480545454E+03 0.13576114721E+03 0.14275909967E+03 0.14516595585E+03 0.14275910009E+03
 0.11663896418E+03 0.10531040456E+03 0.91773780875E+02 0.77086263352E+02 0.62285921181E+02
 0.48291758864E+02 0.35834236573E+02 0.25414475820E+02 0.17285608761E+02 0.11451412080E+02
 0.76825122651E+01 0.55541476269E+01 0.45081065585E+01 0.39416020098E+01 0.35176786162E+01
 0.32173174920E+01 0.30292711442E+01 0.29396548045E+01 0.29396548088E+01 0.30292711503E+01
 0.32173174810E+01 0.35176785742E+01 0.39416019387E+01 0.45081064865E+01 0.55541476008E+01
 0.76825123348E+01 0.11451412271E+02 0.17285609057E+02 0.25414476151E+02 0.35834236825E+02
 0.48291758917E+02 0.62285920938E+02 0.77086262783E+02 0.91773780040E+02 0.10531040360E+03
 0.11663896329E+03 0.12480545454E+03 0.12908475615E+03 0.12908475638E+03 0.12480545518E+03
 0.96652128229E+02 0.85619690903E+02 0.73116811802E+02 0.60086601859E+02 0.47411293335E+02
 0.35834236573E+02 0.25907122410E+02 0.17959526260E+02 0.12087131661E+02 0.81580925887E+01
 0.58403385883E+01 0.46524491828E+01 0.40367265697E+01 0.35858090009E+01 0.32539567019E+01
 0.30326674812E+01 0.29077734186E+01 0.28676080746E+01 0.29077734795E+01 0.30326675671E+01
 0.32539567581E+01 0.35858089824E+01 0.40367264657E+01 0.46524490272E+01 0.58403384506E+01
 0.81580925467E+01 0.12087131766E+02 0.17959526505E+02 0.25907122727E+02 0.35834236837E+02
 0.47411293415E+02 0.60086601660E+02 0.73116811301E+02 0.85619690174E+02 0.96652127426E+02
 0.10531040360E+03 0.11084104455E+03 0.11274316435E+03 0.11084104495E+03 0.10531040429E+03
 0.77088399325E+02 0.66909296905E+02 0.55896675590E+02 0.44856525804E+02 0.34506356193E+02
 0.25414475820E+02 0.17959526260E+02 0.12308781969E+02 0.84149689414E+01 0.60336445024E+01
 0.47634405134E+01 0.41082396838E+01 0.36409790699E+01 0.32863519104E+01 0.30389469404E+01
 0.28854374937E+01 0.28126078481E+01 0.28126079017E+01 0.28854376266E+01 0.30389470846E+01
 0.32863519829E+01 0.36409790133E+01 0.41082394895E+01 0.47634402323E+01 0.60336442248E+01
 0.84149687637E+01 0.12308781957E+02 0.17959526411E+02 0.25414476073E+02 0.34506356432E+02
 0.44856525907E+02 0.55896675479E+02 0.66909296567E+02 0.77088398832E+02 0.85619690174E+02
 0.91773780040E+02 0.94999375900E+02 0.94999376044E+02 0.91773780426E+02 0.85619690687E+02
 0.59016261175E+02 0.50104693869E+02 0.40875389395E+02 0.31986625545E+02 0.23990496281E+02
 0.17285608761E+02 0.12087131661E+02 0.84149689414E+01 0.61019614581E+01 0.48241416313E+01
 0.41526235579E+01 0.36797214594E+01 0.33116142042E+01 0.30457286255E+01 0.28703358029E+01
 0.27718892127E+01 0.27402984472E+01 0.27718893206E+01 0.28703359669E+01 0.30457287630E+01
 0.33116142335E+01 0.36797213319E+01 0.41526232790E+01 0.48241412588E+01 0.61019610853E+01
 0.84149686582E+01 0.12087131531E+02 0.17285608787E+02 0.23990496417E+02 0.31986625711E+02
 0.40875389501E+02 0.50104693865E+02 0.59016261049E+02 0.66909296567E+02 0.73116811301E+02
 0.77086262783E+02 0.78452061397E+02 0.77086262910E+02 0.73116811505E+02 0.66909296771E+02
 0.43227190285E+02 0.35843571468E+02 0.28528349416E+02 0.21789362296E+02 0.16017558463E+02
 0.11451412080E+02 0.81580925887E+01 0.60336445024E+01 0.48241416313E+01 0.41677381248E+01
 0.36996831094E+01 0.33276242535E+01 0.30512177742E+01 0.28606983005E+01 0.27431695926E+01
 0.26875311446E+01 0.26875311883E+01 0.27431697056E+01 0.28606984312E+01 0.30512178583E+01
 0.33276242335E+01 0.36996829565E+01 0.41677378469E+01 0.48241412702E+01 0.60336441250E+01
 0.81580922563E+01 0.11451411846E+02 0.16017558343E+02 0.21789362279E+02 0.28528349469E+02
 0.35843571547E+02 0.43227190356E+02 0.50104693865E+02 0.55896675479E+02 0.60086601660E+02
 0.62285920938E+02 0.62285920938E+02 0.60086601657E+02 0.55896675459E+02 0.50104693818E+02
 0.30215489224E+02 0.24467847358E+02 0.19043640633E+02 0.14302871884E+02 0.10484434093E+02
 0.76825122651E+01 0.58403385883E+01 0.47634405134E+01 0.41526235579E+01 0.36996831094E+01
 0.33331029071E+01 0.30542462376E+01 0.28553458296E+01 0.27248260578E+01 0.26516427537E+01
 0.26281506232E+01 0.26516427923E+01 0.27248261235E+01 0.28553459016E+01 0.30542462885E+01
 0.33331029105E+01 0.36996830412E+01 0.41526234094E+01 0.47634402823E+01 0.58403382985E+01
 0.76825119403E+01 0.10484433777E+02 0.14302871615E+02 0.19043640438E+02 0.24467847257E+02
 0.30215489212E+02 0.35843571547E+02 0.40875389501E+02 0.44856525907E+02 0.47411293415E+02
 0.48291758917E+02 0.47411293363E+02 0.44856525819E+02 0.40875389413E+02 0.35843571491E+02
 0.20180247484E+02 0.16031761132E+02 0.12334468976E+02 0.93087006385E+01 0.70571528299E+01
 0.55541476269E+01 0.46524491828E+01 0.41082396838E+01 0.36797214594E+01 0.33276242535E+01
 0.30542462376E+01 0.28536295701E+01 0.27158775465E+01 0.26307974769E+01 0.25904119781E+01
 0.25904119751E+01 0.26307974745E+01 0.27158775618E+01 0.28536296211E+01 0.30542463298E+01
 0.33276243749E+01 0.36797215733E+01 0.41082397487E+01 0.46524491486E+01 0.55541474741E+01
 0.70571525567E+01 0.93087002765E+01 0.12334468587E+02 0.16031760771E+02 0.20180247205E+02
 0.24467847257E+02 0.28528349469E+02 0.31986625711E+02 0.34506356432E+02 0.35834236837E+02
 0.35834236825E+02 0.34506356411E+02 0.31986625718E+02 0.28528349542E+02 0.24467847430E+02
 0.13039617253E+02 0.10321538651E+02 0.80656482042E+01 0.63680570658E+01 0.52196467367E+01
 0.45081065585E+01 0.40367265697E+01 0.36409790699E+01 0.33116142042E+01 0.30512177742E+01
 0.28553458296E+01 0.27158775465E+01 0.26239591048E+01 0.25720898231E+01 0.25553650262E+01
 0.25720897913E+01 0.26239590705E+01 0.27158775532E+01 0.28553459205E+01 0.30512179650E+01
 0.33116144835E+01 0.36409793801E+01 0.40367268457E+01 0.45081067181E+01 0.52196467302E+01
 0.63680568795E+01 0.80656478537E+01 0.10321538200E+02 0.13039616769E+02 0.16031760771E+02
 0.19043640438E+02 0.21789362279E+02 0.23990496417E+02 0.25414476073E+02 0.25907122727E+02
 0.25414476151E+02 0.23990496587E+02 0.21789362548E+02 0.19043640811E+02 0.16031761223E+02
 0.84577317246E+01 0.68911940451E+01 0.57007736743E+01 0.48821826641E+01 0.43469216467E+01
 0.39416020098E+01 0.35858090009E+01 0.32863519104E+01 0.30457286255E+01 0.28606983005E+01
 0.27248260578E+01 0.26307974769E+01 0.25720898231E+01 0.25439663998E+01 0.25439663789E+01
 0.25720897723E+01 0.26307974406E+01 0.27248260840E+01 0.28606984369E+01 0.30457288842E+01
 0.32863522802E+01 0.35858094229E+01 0.39416024141E+01 0.43469219535E+01 0.48821827992E+01
 0.57007736145E+01 0.68911937803E+01 0.84577312946E+01 0.10321538200E+02 0.12334468587E+02
 0.14302871615E+02 0.16017558343E+02 0.17285608787E+02 0.17959526411E+02 0.17959526505E+02
 0.17285609057E+02 0.16017558761E+02 0.14302872137E+02 0.12334469150E+02 0.10321538732E+02
 0.58913397914E+01 0.51217170927E+01 0.45746395352E+01 0.41764220915E+01 0.38278853743E+01
 0.35176786162E+01 0.32539567019E+01 0.30389469404E+01 0.28703358029E+01 0.27431695926E+01
 0.26516427537E+01 0.25904119781E+01 0.25553650262E+01 0.25439663789E+01 0.25553649882E+01
 0.25904119211E+01 0.26516427128E+01 0.27431696066E+01 0.28703359097E+01 0.30389471577E+01
 0.32539570292E+01 0.35176790245E+01 0.38278858036E+01 0.41764224863E+01 0.45746398075E+01
 0.51217171919E+01 0.58913396868E+01 0.68911937803E+01 0.80656478537E+01 0.93087002765E+01
 0.10484433777E+02 0.11451411846E+02 0.12087131531E+02 0.12308781957E+02 0.12087131766E+02
 0.11451412271E+02 0.10484434317E+02 0.93087008306E+01 0.80656483266E+01 0.68911940922E+01
 0.46617679048E+01 0.43052660613E+01 0.39933436876E+01 0.37018147218E+01 0.34410031937E+01
 0.32173174920E+01 0.30326674812E+01 0.28854374937E+01 0.27718892127E+01 0.26875311446E+01
 0.26281506232E+01 0.25904119751E+01 0.25720897913E+01 0.25720897723E+01 0.25904119211E+01
 0.26281505399E+01 0.26875310484E+01 0.27718891277E+01 0.28854374575E+01 0.30326675314E+01
 0.32173176563E+01 0.34410034865E+01 0.37018151072E+01 0.39933441190E+01 0.43052664615E+01
 0.46617681793E+01 0.51217171919E+01 0.57007736145E+01 0.63680568795E+01 0.70571525567E+01
 0.76825119403E+01 0.81580922563E+01 0.84149686582E+01 0.84149687637E+01 0.81580925467E+01
 0.76825123348E+01 0.70571529480E+01 0.63680571644E+01 0.57007737200E+01 0.51217170959E+01
 0.40520142181E+01 0.38035852326E+01 0.35703838531E+01 0.33608261169E+01 0.31799177430E+01
 0.30292711442E+01 0.29077734186E+01 0.28126078481E+01 0.27402984472E+01 0.26875311883E+01
 0.26516427923E+01 0.26307974745E+01 0.26239590705E+01 0.26307974406E+01 0.26516427128E+01
 0.26875310484E+01 0.27402982455E+01 0.28126076030E+01 0.29077731763E+01 0.30292709696E+01
 0.31799176951E+01 0.33608262449E+01 0.35703841564E+01 0.38035856602E+01 0.40520147003E+01
 0.43052664615E+01 0.45746398075E+01 0.48821827992E+01 0.52196467302E+01 0.55541474741E+01
 0.58403382985E+01 0.60336441250E+01 0.61019610853E+01 0.60336442248E+01 0.58403384506E+01
 0.55541476008E+01 0.52196467538E+01 0.48821826633E+01 0.45746395010E+01 0.43052660221E+01
 0.36165539947E+01 0.34406597454E+01 0.32823468049E+01 0.31455317811E+01 0.30315634694E+01
 0.29396548045E+01 0.28676080746E+01 0.28126079017E+01 0.27718893206E+01 0.27431697056E+01
 0.27248261235E+01 0.27158775618E+01 0.27158775532E+01 0.27248260840E+01 0.27431696066E+01
 0.27718891277E+01 0.28126076030E+01 0.28676076886E+01 0.29396543874E+01 0.30315631060E+01
 0.31455315508E+01 0.32823467717E+01 0.34406599350E+01 0.36165543737E+01 0.38035856602E+01
 0.39933441190E+01 0.41764224863E+01 0.43469219535E+01 0.45081067181E+01 0.46524491486E+01
 0.47634402823E+01 0.48241412702E+01 0.48241412588E+01 0.47634402323E+01 0.46524490272E+01
 0.45081064865E+01 0.43469215901E+01 0.41764220110E+01 0.39933435932E+01 0.38035851668E+01
 0.33190012875E+01 0.32103568561E+01 0.31178095209E+01 0.30424693784E+01 0.29837098224E+01
 0.29396548088E+01 0.29077734795E+01 0.28854376266E+01 0.28703359669E+01 0.28606984312E+01
 0.28553459016E+01 0.28536296211E+01 0.28553459205E+01 0.28606984369E+01 0.28703359097E+01
 0.28854374575E+01 0.29077731763E+01 0.29396543874E+01 0.29837093352E+01 0.30424689150E+01
 0.31178091695E+01 0.32103566853E+01 0.33190013346E+01 0.34406599350E+01 0.35703841564E+01
 0.37018151072E+01 0.38278858036E+01 0.39416024141E+01 0.40367268457E+01 0.41082397487E+01
 0.41526234094E+01 0.41677378469E+01 0.41526232790E+01 0.41082394895E+01 0.40367264657E+01
 0.39416019387E+01 0.38278852808E+01 0.37018145964E+01 0.35703837317E+01 0.34406596737E+01
 0.31486908659E+01 0.30998099212E+01 0.30646072048E+01 0.30424693441E+01 0.30315634286E+01
 0.30292711503E+01 0.30326675671E+01 0.30389470846E+01 0.30457287630E+01 0.30512178583E+01
 0.30542462885E+01 0.30542463298E+01 0.30512179650E+01 0.30457288842E+01 0.30389471577E+01
 0.30326675314E+01 0.30292709696E+01 0.30315631060E+01 0.30424689150E+01 0.30646067390E+01
 0.30998095055E+01 0.31486905750E+01 0.32103566853E+01 0.32823467717E+01 0.33608262449E+01
 0.34410034865E+01 0.35176790245E+01 0.35858094229E+01 0.36409793801E+01 0.36797215733E+01
 0.36996830412E+01 0.36996829565E+01 0.36797213319E+01 0.36409790133E+01 0.35858089824E+01
 0.35176785742E+01 0.34410030971E+01 0.33608259887E+01 0.32823466954E+01 0.32103568022E+01
 0.30935714673E+01 0.30998099009E+01 0.31178094565E+01 0.31455316869E+01 0.31799176673E+01
 0.32173174810E+01 0.32539567581E+01 0.32863519829E+01 0.33116142335E+01 0.33276242335E+01
 0.33331029105E+01 0.33276243749E+01 0.33116144835E+01 0.32863522802E+01 0.32539570292E+01
 0.32173176563E+01 0.31799176951E+01 0.31455315508E+01 0.31178091695E+01 0.30998095055E+01
 0.30935710314E+01 0.30998095055E+01 0.31178091695E+01 0.31455315508E+01 0.31799176951E+01
 0.32173176563E+01 0.32539570292E+01 0.32863522802E+01 0.33116144835E+01 0.33276243749E+01
 0.33331029105E+01 0.33276242335E+01 0.33116142335E+01 0.32863519829E+01 0.32539567581E+01
 0.32173174810E+01 0.31799176673E+01 0.31455316869E+01 0.31178094565E+01 0.30998099009E+01
 0.31486908659E+01 0.32103568022E+01 0.32823466954E+01 0.33608259887E+01 0.34410030971E+01
 0.35176785742E+01 0.35858089824E+01 0.36409790133E+01 0.36797213319E+01 0.36996829565E+01
 0.36996830412E+01 0.36797215733E+01 0.36409793801E+01 0.35858094229E+01 0.35176790245E+01
 0.34410034865E+01 0.33608262449E+01 0.32823467717E+01 0.32103566853E+01 0.31486905750E+01
 0.30998095055E+01 0.30646067390E+01 0.30424689150E+01 0.30315631060E+01 0.30292709696E+01
 0.30326675314E+01 0.30389471577E+01 0.30457288842E+01 0.30512179650E+01 0.30542463298E+01
 0.30542462885E+01 0.30512178583E+01 0.30457287630E+01 0.30389470846E+01 0.30326675671E+01
 0.30292711503E+01 0.30315634286E+01 0.30424693441E+01 0.30646072048E+01 0.30998099212E+01
 0.33190012875E+01 0.34406596737E+01 0.35703837317E+01 0.37018145964E+01 0.38278852808E+01
 0.39416019387E+01 0.40367264657E+01 0.41082394895E+01 0.41526232790E+01 0.41677378469E+01
 0.41526234094E+01 0.41082397487E+01 0.40367268457E+01 0.39416024141E+01 0.38278858036E+01
 0.37018151072E+01 0.35703841564E+01 0.34406599350E+01 0.33190013346E+01 0.32103566853E+01
 0.31178091695E+01 0.30424689150E+01 0.29837093352E+01 0.29396543874E+01 0.29077731763E+01
 0.28854374575E+01 0.28703359097E+01 0.28606984369E+01 0.28553459205E+01 0.28536296211E+01
 0.28553459016E+01 0.28606984312E+01 0.28703359669E+01 0.28854376266E+01 0.29077734795E+01
 0.29396548088E+01 0.29837098224E+01 0.30424693784E+01 0.31178095209E+01 0.32103568561E+01
 0.36165539947E+01 0.38035851668E+01 0.39933435932E+01 0.41764220110E+01 0.43469215901E+01
 0.45081064865E+01 0.46524490272E+01 0.47634402323E+01 0.48241412588E+01 0.48241412702E+01
 0.47634402823E+01 0.46524491486E+01 0.45081067181E+01 0.43469219535E+01 0.41764224863E+01
 0.39933441190E+01 0.38035856602E+01 0.36165543737E+01 0.34406599350E+01 0.32823467717E+01
 0.31455315508E+01 0.30315631060E+01 0.29396543874E+01 0.28676076886E+01 0.28126076030E+01
 0.27718891277E+01 0.27431696066E+01 0.27248260840E+01 0.27158775532E+01 0.27158775618E+01
 0.27248261235E+01 0.27431697056E+01 0.27718893206E+01 0.28126079017E+01 0.28676080746E+01
 0.29396548045E+01 0.30315634694E+01 0.31455317811E+01 0.32823468049E+01 0.34406597454E+01
 0.40520142181E+01 0.43052660221E+01 0.45746395010E+01 0.48821826633E+01 0.52196467538E+01
 0.55541476008E+01 0.58403384506E+01 0.60336442248E+01 0.61019610853E+01 0.60336441250E+01
 0.58403382985E+01 0.55541474741E+01 0.52196467302E+01 0.48821827992E+01 0.45746398075E+01
 0.43052664615E+01 0.40520147003E+01 0.38035856602E+01 0.35703841564E+01 0.33608262449E+01
 0.31799176951E+01 0.30292709696E+01 0.29077731763E+01 0.28126076030E+01 0.27402982455E+01
 0.26875310484E+01 0.26516427128E+01 0.26307974406E+01 0.26239590705E+01 0.26307974745E+01
 0.26516427923E+01 0.26875311883E+01 0.27402984472E+01 0.28126078481E+01 0.29077734186E+01
 0.30292711442E+01 0.31799177430E+01 0.33608261169E+01 0.35703838531E+01 0.38035852326E+01
 0.46617679048E+01 0.51217170959E+01 0.57007737200E+01 0.63680571644E+01 0.70571529480E+01
 0.76825123348E+01 0.81580925467E+01 0.84149687637E+01 0.84149686582E+01 0.81580922563E+01
 0.76825119403E+01 0.70571525567E+01 0.63680568795E+01 0.57007736145E+01 0.51217171919E+01
 0.46617681793E+01 0.43052664615E+01 0.39933441190E+01 0.37018151072E+01 0.34410034865E+01
 0.32173176563E+01 0.30326675314E+01 0.28854374575E+01 0.27718891277E+01 0.26875310484E+01
 0.26281505399E+01 0.25904119211E+01 0.25720897723E+01 0.25720897913E+01 0.25904119751E+01
 0.26281506232E+01 0.26875311446E+01 0.27718892127E+01 0.28854374937E+01 0.30326674812E+01
 0.32173174920E+01 0.34410031937E+01 0.37018147218E+01 0.39933436876E+01 0.43052660613E+01
 0.58913397914E+01 0.68911940922E+01 0.80656483266E+01 0.93087008306E+01 0.10484434317E+02
 0.11451412271E+02 0.12087131766E+02 0.12308781957E+02 0.12087131531E+02 0.11451411846E+02
 0.10484433777E+02 0.93087002765E+01 0.80656478537E+01 0.68911937803E+01 0.58913396868E+01
 0.51217171919E+01 0.45746398075E+01 0.41764224863E+01 0.38278858036E+01 0.35176790245E+01
 0.32539570292E+01 0.30389471577E+01 0.28703359097E+01 0.27431696066E+01 0.26516427128E+01
 0.25904119211E+01 0.25553649882E+01 0.25439663789E+01 0.25553650262E+01 0.25904119781E+01
 0.26516427537E+01 0.27431695926E+01 0.28703358029E+01 0.30389469404E+01 0.32539567019E+01
 0.35176786162E+01 0.38278853743E+01 0.41764220915E+01 0.45746395352E+01 0.51217170927E+01
 0.84577317246E+01 0.10321538732E+02 0.12334469150E+02 0.14302872137E+02 0.16017558761E+02
 0.17285609057E+02 0.17959526505E+02 0.17959526411E+02 0.17285608787E+02 0.16017558343E+02
 0.14302871615E+02 0.12334468587E+02 0.10321538200E+02 0.84577312946E+01 0.68911937803E+01
 0.57007736145E+01 0.48821827992E+01 0.43469219535E+01 0.39416024141E+01 0.35858094229E+01
 0.32863522802E+01 0.30457288842E+01 0.28606984369E+01 0.27248260840E+01 0.26307974406E+01
 0.25720897723E+01 0.25439663789E+01 0.25439663998E+01 0.25720898231E+01 0.26307974769E+01
 0.27248260578E+01 0.28606983005E+01 0.30457286255E+01 0.32863519104E+01 0.35858090009E+01
 0.39416020098E+01 0.43469216467E+01 0.48821826641E+01 0.57007736743E+01 0.68911940451E+01
 0.13039617253E+02 0.16031761223E+02 0.19043640811E+02 0.21789362548E+02 0.23990496587E+02
 0.25414476151E+02 0.25907122727E+02 0.25414476073E+02 0.23990496417E+02 0.21789362279E+02
 0.19043640438E+02 0.16031760771E+02 0.13039616769E+02 0.10321538200E+02 0.80656478537E+01
 0.63680568795E+01 0.52196467302E+01 0.45081067181E+01 0.40367268457E+01 0.36409793801E+01
 0.33116144835E+01 0.30512179650E+01 0.28553459205E+01 0.27158775532E+01 0.26239590705E+01
 0.25720897913E+01 0.25553650262E+01 0.25720898231E+01 0.26239591048E+01 0.27158775465E+01
 0.28553458296E+01 0.30512177742E+01 0.33116142042E+01 0.36409790699E+01 0.40367265697E+01
 0.45081065585E+01 0.52196467367E+01 0.63680570658E+01 0.80656482042E+01 0.10321538651E+02
 0.20180247484E+02 0.24467847430E+02 0.28528349542E+02 0.31986625718E+02 0.34506356411E+02
 0.35834236825E+02 0.35834236837E+02 0.34506356432E+02 0.31986625711E+02 0.28528349469E+02
 0.24467847257E+02 0.20180247205E+02 0.16031760771E+02 0.12334468587E+02 0.93087002765E+01
 0.70571525567E+01 0.55541474741E+01 0.46524491486E+01 0.41082397487E+01 0.36797215733E+01
 0.33276243749E+01 0.30542463298E+01 0.28536296211E+01 0.27158775618E+01 0.26307974745E+01
 0.25904119751E+01 0.25904119781E+01 0.26307974769E+01 0.27158775465E+01 0.28536295701E+01
 0.30542462376E+01 0.33276242535E+01 0.36797214594E+01 0.41082396838E+01 0.46524491828E+01
 0.55541476269E+01 0.70571528299E+01 0.93087006385E+01 0.12334468976E+02 0.16031761132E+02
 0.30215489224E+02 0.35843571491E+02 0.40875389413E+02 0.44856525819E+02 0.47411293363E+02
 0.48291758917E+02 0.47411293415E+02 0.44856525907E+02 0.40875389501E+02 0.35843571547E+02
 0.30215489212E+02 0.24467847257E+02 0.19043640438E+02 0.14302871615E+02 0.10484433777E+02
 0.76825119403E+01 0.58403382985E+01 0.47634402823E+01 0.41526234094E+01 0.36996830412E+01
 0.33331029105E+01 0.30542462885E+01 0.28553459016E+01 0.27248261235E+01 0.26516427923E+01
 0.26281506232E+01 0.26516427537E+01 0.27248260578E+01 0.28553458296E+01 0.30542462376E+01
 0.33331029071E+01 0.36996831094E+01 0.41526235579E+01 0.47634405134E+01 0.58403385883E+01
 0.76825122651E+01 0.10484434093E+02 0.14302871884E+02 0.19043640633E+02 0.24467847358E+02
 0.43227190285E+02 0.50104693818E+02 0.55896675459E+02 0.60086601657E+02 0.62285920938E+02
 0.62285920938E+02 0.60086601660E+02 0.55896675479E+02 0.50104693865E+02 0.43227190356E+02
 0.35843571547E+02 0.28528349469E+02 0.21789362279E+02 0.16017558343E+02 0.11451411846E+02
 0.81580922563E+01 0.60336441250E+01 0.48241412702E+01 0.41677378469E+01 0.36996829565E+01
 0.33276242335E+01 0.30512178583E+01 0.28606984312E+01 0.27431697056E+01 0.26875311883E+01
 0.26875311446E+01 0.27431695926E+01 0.28606983005E+01 0.30512177742E+01 0.33276242535E+01
 0.36996831094E+01 0.41677381248E+01 0.48241416313E+01 0.60336445024E+01 0.81580925887E+01
 0.11451412080E+02 0.16017558463E+02 0.21789362296E+02 0.28528349416E+02 0.35843571468E+02
 0.59016261175E+02 0.66909296771E+02 0.73116811505E+02 0.77086262910E+02 0.78452061397E+02
 0.77086262783E+02 0.73116811301E+02 0.66909296567E+02 0.59016261049E+02 0.50104693865E+02
 0.40875389501E+02 0.31986625711E+02 0.23990496417E+02 0.17285608787E+02 0.12087131531E+02
 0.84149686582E+01 0.61019610853E+01 0.48241412588E+01 0.41526232790E+01 0.36797213319E+01
 0.33116142335E+01 0.30457287630E+01 0.28703359669E+01 0.27718893206E+01 0.27402984472E+01
 0.27718892127E+01 0.28703358029E+01 0.30457286255E+01 0.33116142042E+01 0.36797214594E+01
 0.41526235579E+01 0.48241416313E+01 0.61019614581E+01 0.84149689414E+01 0.12087131661E+02
 0.17285608761E+02 0.23990496281E+02 0.31986625545E+02 0.40875389395E+02 0.50104693869E+02
 0.77088399325E+02 0.85619690687E+02 0.91773780426E+02 0.94999376044E+02 0.94999375900E+02
 0.91773780040E+02 0.85619690174E+02 0.77088398832E+02 0.66909296567E+02 0.55896675479E+02
 0.44856525907E+02 0.34506356432E+02 0.25414476073E+02 0.17959526411E+02 0.12308781957E+02
 0.84149687637E+01 0.60336442248E+01 0.47634402323E+01 0.41082394895E+01 0.36409790133E+01
 0.32863519829E+01 0.30389470846E+01 0.28854376266E+01 0.28126079017E+01 0.28126078481E+01
 0.28854374937E+01 0.30389469404E+01 0.32863519104E+01 0.36409790699E+01 0.41082396838E+01
 0.47634405134E+01 0.60336445024E+01 0.84149689414E+01 0.12308781969E+02 0.17959526260E+02
 0.25414475820E+02 0.34506356193E+02 0.44856525804E+02 0.55896675590E+02 0.66909296905E+02
 0.96652128229E+02 0.10531040429E+03 0.11084104495E+03 0.11274316435E+03 0.11084104455E+03
 0.10531040360E+03 0.96652127426E+02 0.85619690174E+02 0.73116811301E+02 0.60086601660E+02
 0.47411293415E+02 0.35834236837E+02 0.25907122727E+02 0.17959526505E+02 0.12087131766E+02
 0.81580925467E+01 0.58403384506E+01 0.46524490272E+01 0.40367264657E+01 0.35858089824E+01
 0.32539567581E+01 0.30326675671E+01 0.29077734795E+01 0.28676080746E+01 0.29077734186E+01
 0.30326674812E+01 0.32539567019E+01 0.35858090009E+01 0.40367265697E+01 0.46524491828E+01
 0.58403385883E+01 0.81580925887E+01 0.12087131661E+02 0.17959526260E+02 0.25907122410E+02
 0.35834236573E+02 0.47411293335E+02 0.60086601859E+02 0.73116811802E+02 0.85619690903E+02
 0.11663896418E+03 0.12480545518E+03 0.12908475638E+03 0.12908475615E+03 0.12480545454E+03
 0.11663896329E+03 0.10531040360E+03 0.91773780040E+02 0.77086262783E+02 0.62285920938E+02
 0.48291758917E+02 0.35834236825E+02 0.25414476151E+02 0.17285609057E+02 0.11451412271E+02
 0.76825123348E+01 0.55541476008E+01 0.45081064865E+01 0.39416019387E+01 0.35176785742E+01
 0.32173174810E+01 0.30292711503E+01 0.29396548088E+01 0.29396548045E+01 0.30292711442E+01
 0.32173174920E+01 0.35176786162E+01 0.39416020098E+01 0.45081065585E+01 0.55541476269E+01
 0.76825122651E+01 0.11451412080E+02 0.17285608761E+02 0.25414475820E+02 0.35834236573E+02
 0.48291758864E+02 0.62285921181E+02 0.77086263352E+02 0.91773780875E+02 0.10531040456E+03
 0.13576114796E+03 0.14275910009E+03 0.14516595585E+03 0.14275909967E+03 0.13576114721E+03
 0.12480545454E+03 0.11084104455E+03 0.94999375900E+02 0.78452061397E+02 0.62285920938E+02
 0.47411293363E+02 0.34506356411E+02 0.23990496587E+02 0.16017558761E+02 0.10484434317E+02
 0.70571529480E+01 0.52196467538E+01 0.43469215901E+01 0.38278852808E+01 0.34410030971E+01
 0.31799176673E+01 0.30315634286E+01 0.29837098224E+01 0.30315634694E+01 0.31799177430E+01
 0.34410031937E+01 0.38278853743E+01 0.43469216467E+01 0.52196467367E+01 0.70571528299E+01
 0.10484434093E+02 0.16017558463E+02 0.23990496281E+02 0.34506356193E+02 0.47411293335E+02
 0.62285921181E+02 0.78452061940E+02 0.94999376700E+02 0.11084104550E+03 0.12480545548E+03
 0.15261786394E+03 0.15778472144E+03 0.15778472127E+03 0.15261786345E+03 0.14275909967E+03
 0.12908475615E+03 0.11274316435E+03 0.94999376044E+02 0.77086262910E+02 0.60086601657E+02
 0.44856525819E+02 0.31986625718E+02 0.21789362548E+02 0.14302872137E+02 0.93087008306E+01
 0.63680571644E+01 0.48821826633E+01 0.41764220110E+01 0.37018145964E+01 0.33608259887E+01
 0.31455316869E+01 0.30424693441E+01 0.30424693784E+01 0.31455317811E+01 0.33608261169E+01
 0.37018147218E+01 0.41764220915E+01 0.48821826641E+01 0.63680570658E+01 0.93087006385E+01
 0.14302871884E+02 0.21789362296E+02 0.31986625545E+02 0.44856525804E+02 0.60086601859E+02
 0.77086263352E+02 0.94999376700E+02 0.11274316515E+03 0.12908475698E+03 0.14275910038E+03
 0.16584669407E+03 0.16861987182E+03 0.16584669384E+03 0.15778472127E+03 0.14516595585E+03
 0.12908475638E+03 0.11084104495E+03 0.91773780426E+02 0.73116811505E+02 0.55896675459E+02
 0.40875389413E+02 0.28528349542E+02 0.19043640811E+02 0.12334469150E+02 0.80656483266E+01
 0.57007737200E+01 0.45746395010E+01 0.39933435932E+01 0.35703837317E+01 0.32823466954E+01
 0.31178094565E+01 0.30646072048E+01 0.31178095209E+01 0.32823468049E+01 0.35703838531E+01
 0.39933436876E+01 0.45746395352E+01 0.57007736743E+01 0.80656482042E+01 0.12334468976E+02
 0.19043640633E+02 0.28528349416E+02 0.40875389395E+02 0.55896675590E+02 0.73116811802E+02
 0.91773780875E+02 0.11084104550E+03 0.12908475698E+03 0.14516595639E+03 0.15778472169E+03
 0.17429929385E+03 0.17429929379E+03 0.16861987182E+03 0.15778472144E+03 0.14275910009E+03
 0.12480545518E+03 0.10531040429E+03 0.85619690687E+02 0.66909296771E+02 0.50104693818E+02
 0.35843571491E+02 0.24467847430E+02 0.16031761223E+02 0.10321538732E+02 0.68911940922E+01
 0.51217170959E+01 0.43052660221E+01 0.38035851668E+01 0.34406596737E+01 0.32103568022E+01
 0.30998099009E+01 0.30998099212E+01 0.32103568561E+01 0.34406597454E+01 0.38035852326E+01
 0.43052660613E+01 0.51217170927E+01 0.68911940451E+01 0.10321538651E+02 0.16031761132E+02
 0.24467847358E+02 0.35843571468E+02 0.50104693869E+02 0.66909296905E+02 0.85619690903E+02
 0.10531040456E+03 0.12480545548E+03 0.14275910038E+03 0.15778472169E+03 0.16861987199E+03
 0.17429929385E+03 0.16861987199E+03 0.15778472169E+03 0.14275910038E+03 0.12480545548E+03
 0.10531040456E+03 0.85619690903E+02 0.66909296905E+02 0.50104693869E+02 0.35843571468E+02
 0.24467847358E+02 0.16031761132E+02 0.10321538651E+02 0.68911940451E+01 0.51217170927E+01
 0.43052660613E+01 0.38035852326E+01 0.34406597454E+01 0.32103568561E+01 0.30998099212E+01
 0.30998099009E+01 0.32103568022E+01 0.34406596737E+01 0.38035851668E+01 0.43052660221E+01
 0.51217170959E+01 0.68911940922E+01 0.10321538732E+02 0.16031761223E+02 0.24467847430E+02