    1    1    1    1
  0.1187189E+02  0.2560619E-09  0.2560619E-09  0.2560619E-09  0.5000000E-15
  1.000000000000000E-004
  CAR 
 unknown system                          
   11  320   80
 
  0.0000000E+00  0.0000000E+00  0.0000000E+00  0.3125000E-02
   1       -5.562541
   2        0.714574
   3        0.714574
   4        0.714574
   5        1.518611
   6        1.518611
   7       26.804673
   8       29.128819
   9       29.128830
  10       29.128830
  11       31.685837
  12       31.685838
  13       31.685838
  14       35.184079
  15       40.316259
  16       40.316276
  17       40.316276
  18       43.092530
  19       43.092530
  20       55.805867
  21       78.841947
  22       78.841947
  23       78.841971
  24       85.224662
  25       85.224662
  26       87.870812
  27       87.870815
  28       87.870815
  29       89.850173
  30       89.850184
  31       89.850184
  32       90.996292
  33      111.254164
  34      111.346659
  35      111.346659
  36      111.346662
  37      112.974840
  38      113.991705
  39      113.991708
  40      113.991708
  41      114.302432
  42      114.302432
  43      114.302470
  44      116.706704
  45      116.706712
  46      116.706712
  47      116.883924
  48      116.883934
  49      116.883934
  50      117.706361
  51      117.706361
  52      124.877575
  53      124.877581
  54      124.877581
  55      126.633792
  56      127.199786
  57      127.255927
  58      127.255934
  59      127.255934
  60      143.326810
  61      143.326810
  62      152.852097
  63      152.852097
  64      152.852108
  65      170.597514
  66      170.597528
  67      170.597528
  68      171.053000
  69      184.270341
  70      184.270341
  71      199.235739
  72      199.236310
  73      199.237889
  74      200.088035
  75      200.093630
  76      200.094763
  77      202.938628
  78      205.828542
  79      205.881320
  80      206.069869
 
  0.0000000E+00  0.1282051E-01  0.1282051E-01  0.3125000E-02
   1       -5.554558
   2        0.712215
   3        0.716460
   4        0.716460
   5        1.516470
   6        1.519476
   7       26.769581
   8       29.011492
   9       29.011499
  10       29.091892
  11       31.738127
  12       31.808844
  13       31.808845
  14       35.215793
  15       40.054105
  16       40.330406
  17       40.330418
  18       43.096217
  19       43.365888
  20       55.833310
  21       78.681306
  22       78.807904
  23       78.807920
  24       85.026982
  25       85.399595
  26       87.591478
  27       87.591480
  28       87.923443
  29       89.849235
  30       90.175014
  31       90.175021
  32       91.153709
  33      111.023318
  34      111.044246
  35      111.044249
  36      111.454616
  37      112.831153
  38      113.376043
  39      113.376059
  40      113.908285
  41      114.310823
  42      115.009759
  43      115.009766
  44      115.916104
  45      116.677582
  46      116.677588
  47      116.816549
  48      117.098002
  49      117.098010
  50      117.804841
  51      118.822554
  52      124.511416
  53      124.594127
  54      124.594131
  55      125.789162
  56      127.598576
  57      127.598580
  58      127.599385
  59      128.121870
  60      143.316796
  61      143.327885
  62      152.846225
  63      152.846232
  64      152.859150
  65      169.426450
  66      170.605205
  67      170.605214
  68      172.172653
  69      184.189014
  70      184.345289
  71      198.733163
  72      199.245951
  73      199.247853
  74      200.021909
  75      200.025012
  76      200.094724
  77      203.485300
  78      204.396817
  79      204.958258
  80      205.286240
 
  0.0000000E+00  0.2564103E-01  0.2564103E-01  0.3125000E-02
   1       -5.530629
   2        0.705155
   3        0.722112
   4        0.722113
   5        1.510058
   6        1.522066
   7       26.668624
   8       28.709821
   9       28.709828
  10       28.984573
  11       31.890649
  12       32.127386
  13       32.127387
  14       35.299639
  15       39.465398
  16       40.372908
  17       40.372920
  18       43.107281
  19       43.994812
  20       55.916367
  21       78.243532
  22       78.703875
  23       78.703891
  24       84.515687
  25       85.880191
  26       87.029590
  27       87.029592
  28       88.030229
  29       89.846291
  30       90.874349
  31       90.874355
  32       91.594688
  33      110.250595
  34      110.250598
  35      110.605037
  36      111.528904
  37      112.286126
  38      112.782525
  39      112.782545
  40      113.680480
  41      114.335971
  42      114.982319
  43      115.765205
  44      115.765206
  45      116.622233
  46      116.622237
  47      117.121414
  48      117.707909
  49      117.707920
  50      118.077825
  51      120.306630
  52      123.770085
  53      123.998152
  54      123.998156
  55      124.718378
  56      128.372407
  57      128.372412
  58      128.449429
  59      129.256695
  60      143.283694
  61      143.331081
  62      152.827959
  63      152.827967
  64      152.880341
  65      168.039809
  66      170.628220
  67      170.628229
  68      173.396533
  69      183.949697
  70      184.576177
  71      197.659522
  72      199.268956
  73      199.277946
  74      199.813021
  75      199.818283
  76      200.106040
  77      202.797856
  78      203.448940
  79      203.691750
  80      204.234137
 
  0.0000000E+00  0.3846154E-01  0.3846154E-01  0.3125000E-02
   1       -5.490786
   2        0.693451
   3        0.731528
   4        0.731528
   5        1.499464
   6        1.526365
   7       26.512869
   8       28.306235
   9       28.306241
  10       28.816064
  11       32.132341
  12       32.559119
  13       32.559121
  14       35.396647
  15       38.799142
  16       40.444005
  17       40.444017
  18       43.125729
  19       44.758524
  20       56.057357
  21       77.617827
  22       78.524790
  23       78.524806
  24       83.824595
  25       86.433890
  26       86.433892
  27       86.577158
  28       88.130601
  29       89.841356
  30       91.702785
  31       91.702791
  32       92.247105
  33      109.193026
  34      109.193028
  35      110.050351
  36      111.241156
  37      111.572220
  38      112.264459
  39      112.264479
  40      113.354616
  41      114.377923
  42      114.524269
  43      116.176127
  44      116.176132
  45      116.751723
  46      116.751724
  47      117.567811
  48      118.478984
  49      118.615179
  50      118.615190
  51      121.723535
  52      123.035915
  53      123.337046
  54      123.337049
  55      123.656469
  56      129.332488
  57      129.332493
  58      129.460122
  59      130.425895
  60      143.228307
  61      143.336311
  62      152.803037
  63      152.803044
  64      152.917102
  65      166.660506
  66      170.666454
  67      170.666464
  68      174.481768
  69      183.565296
  70      184.977103
  71      196.434025
  72      199.280371
  73      199.281502
  74      199.414968
  75      199.418919
  76      200.086902
  77      201.189494
  78      202.046798
  79      202.057504
  80      202.370115
 
  0.0000000E+00  0.5128205E-01  0.5128205E-01  0.3125000E-02
   1       -5.435115
   2        0.677193
   3        0.744680
   4        0.744680
   5        1.484789
   6        1.532350
   7       26.316055
   8       27.853159
   9       27.853165
  10       28.598412
  11       32.449525
  12       33.051079
  13       33.051080
  14       35.421476
  15       38.218330
  16       40.544078
  17       40.544090
  18       43.151683
  19       45.562914
  20       56.259869
  21       76.880557
  22       78.263840
  23       78.263856
  24       83.039998
  25       85.885537
  26       85.885539
  27       87.414097
  28       88.210127
  29       89.834291
  30       92.580650
  31       92.580656
  32       93.037891
  33      108.026437
  34      108.026437
  35      109.391774
  36      109.895445
  37      111.603224
  38      111.766280
  39      111.766299
  40      112.971564
  41      114.373441
  42      114.436744
  43      116.072609
  44      116.072616
  45      117.283608
  46      117.283610
  47      118.104456
  48      118.967605
  49      119.667682
  50      119.667692
  51      121.817329
  52      122.614854
  53      122.700321
  54      122.700325
  55      123.608972
  56      130.399206
  57      130.399212
  58      130.555832
  59      131.618922
  60      143.140777
  61      143.344548
  62      152.770690
  63      152.770697
  64      152.972501
  65      165.317225
  66      170.719737
  67      170.719746
  68      175.376279
  69      183.054242
  70      185.552577
  71      195.208510
  72      198.659128
  73      198.663817
  74      199.231595
  75      199.233798
  76      199.627441
  77      200.031837
  78      200.681048
  79      201.029688
  80      201.057377
 
  0.0000000E+00  0.6410256E-01  0.6410256E-01  0.3125000E-02
   1       -5.363754
   2        0.656482
   3        0.761529
   4        0.761529
   5        1.466194
   6        1.539963
   7       26.090964
   8       27.376847
   9       27.376853
  10       28.343712
  11       32.828631
  12       33.576205
  13       33.576207
  14       35.234004
  15       37.885002
  16       40.673623
  17       40.673635
  18       43.184406
  19       46.368634
  20       56.528484
  21       76.080542
  22       77.915231
  23       77.915247
  24       82.207482
  25       85.415602
  26       85.415603
  27       88.274473
  28       88.341259
  29       89.823091
  30       93.472886
  31       93.472892
  32       93.913718
  33      106.826056
  34      106.826057
  35      108.433938
  36      108.657246
  37      111.272511
  38      111.272528
  39      111.630238
  40      112.558232
  41      114.356575
  42      114.512270
  43      115.819969
  44      115.819976
  45      117.897232
  46      117.897232
  47      118.693737
  48      119.516261
  49      120.701279
  50      120.701288
  51      121.009448
  52      121.598239
  53      122.181799
  54      122.181801
  55      125.073511
  56      131.546150
  57      131.546156
  58      131.718126
  59      132.833057
  60      143.011427
  61      143.350437
  62      152.728559
  63      152.728565
  64      153.037800
  65      164.032684
  66      170.787665
  67      170.787675
  68      176.047893
  69      182.437054
  70      186.266288
  71      194.073361
  72      197.439709
  73      197.441154
  74      198.071379
  75      198.993670
  76      199.055787
  77      199.091626
  78      199.887208
  79      200.570123
  80      200.574461
 
  0.0000000E+00  0.7692308E-01  0.7692308E-01  0.3125000E-02
   1       -5.276829
   2        0.631493
   3        0.782048
   4        0.782048
   5        1.443905
   6        1.549189
   7       25.848314
   8       26.890623
   9       26.890628
  10       28.062468
  11       33.259381
  12       34.120792
  13       34.120794
  14       34.756294
  15       37.881599
  16       40.833454
  17       40.833466
  18       43.225095
  19       47.155102
  20       56.868880
  21       75.247041
  22       77.477275
  23       77.477291
  24       81.352116
  25       85.038128
  26       85.038130
  27       88.331041
  28       89.330088
  29       89.808080
  30       94.352401
  31       94.352407
  32       94.842629
  33      105.636624
  34      105.636627
  35      106.932433
  36      107.866934
  37      110.782406
  38      110.782422
  39      111.656877
  40      112.131197
  41      114.404915
  42      114.605090
  43      115.502168
  44      115.502176
  45      118.525028
  46      118.525029
  47      119.302762
  48      120.108943
  49      120.155317
  50      120.618823
  51      121.094264
  52      121.094272
  53      122.370286
  54      122.370288
  55      126.570058
  56      132.762487
  57      132.762493
  58      132.944714
  59      134.067497
  60      142.831309
  61      143.360885
  62      152.684624
  63      152.684630
  64      153.122713
  65      162.827466
  66      170.870213
  67      170.870222
  68      176.493046
  69      181.735014
  70      186.987094
  71      193.166346
  72      195.967825
  73      195.968369
  74      196.537082
  75      197.282594
  76      198.766882
  77      198.773951
  78      199.653403
  79      200.432250
  80      200.477691
 
  0.0000000E+00  0.8974359E-01  0.8974359E-01  0.3125000E-02
   1       -5.174541
   2        0.602407
   3        0.806184
   4        0.806184
   5        1.418190
   6        1.559959
   7       25.596180
   8       26.401598
   9       26.401603
  10       27.762882
  11       33.733311
  12       34.072858
  13       34.676795
  14       34.676797
  15       38.122683
  16       41.024420
  17       41.024432
  18       43.273229
  19       47.908742
  20       57.286427
  21       74.397222
  22       76.953738
  23       76.953754
  24       80.487663
  25       84.755895
  26       84.755896
  27       88.384970
  28       89.787510
  29       90.362544
  30       95.182906
  31       95.182911
  32       95.803653
  33      104.501367
  34      104.501371
  35      105.421397
  36      107.033936
  37      110.297999
  38      110.298014
  39      111.684358
  40      111.700104
  41      114.492496
  42      114.715182
  43      115.137198
  44      115.137205
  45      119.133945
  46      119.133946
  47      119.304715
  48      119.524575
  49      120.071594
  50      120.728402
  51      120.728409
  52      120.735800
  53      123.388556
  54      123.388560
  55      128.040943
  56      134.042161
  57      134.042167
  58      134.238096
  59      135.321525
  60      142.586884
  61      143.372441
  62      152.641425
  63      152.641430
  64      153.226424
  65      161.720887
  66      170.966981
  67      170.966991
  68      176.730857
  69      180.966590
  70      187.419355
  71      192.752606
  72      194.407746
  73      194.409346
  74      195.024004
  75      195.617805
  76      198.428383
  77      198.446662
  78      199.275667
  79      200.269252
  80      200.554472
 
  0.0000000E+00  0.1025641E+00  0.1025641E+00  0.3125000E-02
   1       -5.057134
   2        0.569436
   3        0.833878
   4        0.833878
   5        1.389387
   6        1.572205
   7       25.340468
   8       25.913939
   9       25.913944
  10       27.450796
  11       33.290355
  12       34.244270
  13       35.239035
  14       35.239037
  15       38.499549
  16       41.247578
  17       41.247590
  18       43.328828
  19       48.620469
  20       57.785597
  21       73.541628
  22       76.353698
  23       76.353714
  24       79.622790
  25       84.563923
  26       84.563925
  27       88.439560
  28       89.759322
  29       91.427560
  30       95.902981
  31       95.902985
  32       96.782772
  33      103.484497
  34      103.484503
  35      103.915932
  36      106.167135
  37      109.821589
  38      109.821603
  39      111.270943
  40      111.712538
  41      114.608207
  42      114.735851
  43      114.735858
  44      114.842793
  45      118.466725
  46      118.653432
  47      119.548126
  48      119.548127
  49      120.477004
  50      120.477011
  51      120.656361
  52      121.390842
  53      124.522796
  54      124.522799
  55      129.469335
  56      135.381026
  57      135.381032
  58      135.601862
  59      136.594404
  60      142.265464
  61      143.384732
  62      152.603016
  63      152.603021
  64      153.350831
  65      160.730702
  66      171.077683
  67      171.077692
  68      176.791305
  69      180.148138
  70      187.239807
  71      192.818318
  72      192.819433
  73      193.103705
  74      193.537132
  75      193.970313
  76      198.055013
  77      198.076277
  78      198.592245
  79      199.232346
  80      199.290685
 
  0.0000000E+00  0.1153846E+00  0.1153846E+00  0.3125000E-02
   1       -4.924907
   2        0.532824
   3        0.865057
   4        0.865057
   5        1.357902
   6        1.585854
   7       25.085420
   8       25.430274
   9       25.430280
  10       27.129805
  11       32.467118
  12       34.787744
  13       35.803736
  14       35.803738
  15       38.952152
  16       41.504126
  17       41.504139
  18       43.391911
  19       49.284929
  20       58.368853
  21       72.686992
  22       75.689427
  23       75.689443
  24       78.763282
  25       84.452638
  26       84.452640
  27       88.496926
  28       89.720445
  29       92.517757
  30       96.400918
  31       96.400921
  32       97.769335
  33      102.425876
  34      102.698145
  35      102.698153
  36      105.272734
  37      109.355229
  38      109.355242
  39      110.847517
  40      111.739820
  41      114.307319
  42      114.307326
  43      114.746324
  44      114.988248
  45      117.644664
  46      117.755625
  47      119.357332
  48      119.357335
  49      120.846372
  50      120.846378
  51      121.305404
  52      122.070266
  53      125.665344
  54      125.665346
  55      130.845977
  56      136.775570
  57      136.775577
  58      137.038182
  59      137.884813
  60      141.856487
  61      143.397332
  62      152.573850
  63      152.573855
  64      153.498268
  65      159.871941
  66      171.202046
  67      171.202056
  68      176.703270
  69      179.293422
  70      186.518116
  71      191.223275
  72      191.227119
  73      192.078676
  74      192.338488
  75      194.084232
  76      197.275258
  77      197.295172
  78      197.438110
  79      197.750239
  80      197.858368
 
  0.0000000E+00  0.1282051E+00  0.1282051E+00  0.3125000E-02
   1       -4.778224
   2        0.492837
   3        0.899634
   4        0.899634
   5        1.324226
   6        1.600820
   7       24.834049
   8       24.952390
   9       24.952395
  10       26.801327
  11       31.632088
  12       35.360413
  13       36.367878
  14       36.367880
  15       39.450845
  16       41.795358
  17       41.795371
  18       43.462494
  19       49.900544
  20       59.035842
  21       71.837804
  22       74.973954
  23       74.973969
  24       77.913323
  25       84.410802
  26       84.410803
  27       88.558476
  28       89.666221
  29       93.627844
  30       96.513009
  31       96.513010
  32       98.754057
  33      100.959845
  34      102.304681
  35      102.304690
  36      104.355322
  37      108.900918
  38      108.900930
  39      110.432323
  40      111.762293
  41      113.859867
  42      113.859873
  43      114.903063
  44      115.151977
  45      116.840527
  46      116.893913
  47      118.910559
  48      118.910563
  49      121.498696
  50      121.498702
  51      121.958936
  52      122.771574
  53      126.796621
  54      126.796622
  55      132.166061
  56      138.222464
  57      138.222471
  58      138.546381
  59      139.187932
  60      141.356562
  61      143.409763
  62      152.558743
  63      152.558747
  64      153.671570
  65      159.155212
  66      171.339826
  67      171.339836
  68      176.489396
  69      178.413661
  70      185.525026
  71      189.629880
  72      189.632313
  73      190.641187
  74      190.717448
  75      194.985625
  76      195.300698
  77      195.376096
  78      195.787459
  79      197.338517
  80      197.355176
 
  0.0000000E+00  0.1410256E+00  0.1410256E+00  0.3125000E-02
   1       -4.617531
   2        0.449763
   3        0.937507
   4        0.937507
   5        1.288939
   6        1.617011
   7       24.481583
   8       24.481588
   9       24.588491
  10       26.464476
  11       30.802202
  12       35.959811
  13       36.928930
  14       36.928931
  15       39.979487
  16       42.122576
  17       42.122589
  18       43.540589
  19       50.469358
  20       59.783123
  21       70.997188
  22       74.219305
  23       74.219319
  24       77.076222
  25       84.427497
  26       84.427499
  27       88.625204
  28       89.589446
  29       94.753714
  30       96.141583
  31       96.141584
  32       99.527584
  33       99.727644
  34      102.398505
  35      102.398515
  36      103.418575
  37      108.461056
  38      108.461067
  39      110.027056
  40      111.771658
  41      113.400796
  42      113.400803
  43      115.073653
  44      115.334546
  45      116.057710
  46      116.085253
  47      118.428256
  48      118.428260
  49      122.215305
  50      122.215311
  51      122.608889
  52      123.493069
  53      127.909262
  54      127.909263
  55      133.428312
  56      139.718382
  57      139.718389
  58      140.122563
  59      140.401948
  60      140.865063
  61      143.421498
  62      152.562867
  63      152.562871
  64      153.874171
  65      158.585031
  66      171.490811
  67      171.490821
  68      176.165786
  69      177.518032
  70      184.421231
  71      188.044458
  72      188.044929
  73      189.111873
  74      189.233250
  75      193.275294
  76      193.280801
  77      193.891099
  78      194.719064
  79      196.972103
  80      197.625807
 
  0.0000000E+00  0.1538462E+00  0.1538462E+00  0.3125000E-02
   1       -4.443366
   2        0.403911
   3        0.978562
   4        0.978562
   5        1.252747
   6        1.634326
   7       24.018868
   8       24.018873
   9       24.350247
  10       26.115727
  11       29.990478
  12       36.584082
  13       37.484773
  14       37.484775
  15       40.528138
  16       42.487002
  17       42.487016
  18       43.626203
  19       50.996649
  20       60.604504
  21       70.167409
  22       73.435792
  23       73.435806
  24       76.254874
  25       84.493027
  26       84.493029
  27       88.698264
  28       89.478755
  29       95.379311
  30       95.379312
  31       95.891903
  32       98.142216
  33      100.679383
  34      102.466487
  35      102.880814
  36      102.880825
  37      108.039406
  38      108.039416
  39      109.632904
  40      111.751574
  41      112.936390
  42      112.936397
  43      115.175925
  44      115.353712
  45      115.377213
  46      115.536718
  47      117.946207
  48      117.946211
  49      122.961925
  50      122.961932
  51      123.250217
  52      124.233564
  53      128.999032
  54      128.999032
  55      134.633856
  56      140.000940
  57      141.260520
  58      141.260528
  59      141.760173
  60      141.913246
  61      143.431972
  62      152.592176
  63      152.592179
  64      154.110229
  65      158.161092
  66      171.654824
  67      171.654834
  68      175.743771
  69      176.613770
  70      183.276562
  71      186.468913
  72      186.469056
  73      187.523134
  74      187.853847
  75      191.255703
  76      191.258049
  77      191.918384
  78      193.704055
  79      196.610675
  80      196.877660
 
  0.0000000E+00  0.1666667E+00  0.1666667E+00  0.3125000E-02
   1       -4.256404
   2        0.355606
   3        1.022659
   4        1.022659
   5        1.216458
   6        1.652658
   7       23.565041
   8       23.565045
   9       24.120362
  10       25.748026
  11       29.209604
  12       37.231805
  13       38.033719
  14       38.033721
  15       41.089529
  16       42.889540
  17       42.889553
  18       43.719324
  19       51.488988
  20       61.491791
  21       69.350163
  22       72.631431
  23       72.631445
  24       75.452062
  25       84.598996
  26       84.598998
  27       88.777353
  28       89.316031
  29       94.389345
  30       94.389347
  31       96.823140
  32       97.039208
  33      101.462367
  34      101.635901
  35      103.576479
  36      103.576489
  37      107.643513
  38      107.643523
  39      109.250716
  40      111.669527
  41      112.471801
  42      112.471808
  43      114.516695
  44      114.739091
  45      115.491159
  46      115.759394
  47      117.476406
  48      117.476411
  49      123.730105
  50      123.730112
  51      123.876669
  52      124.992209
  53      130.062620
  54      130.062621
  55      135.784853
  56      139.229205
  57      142.844238
  58      142.844244
  59      143.267628
  60      143.440567
  61      143.450941
  62      152.651902
  63      152.651904
  64      154.384809
  65      157.870005
  66      171.831708
  67      171.831718
  68      175.231516
  69      175.706438
  70      182.122771
  71      184.904641
  72      184.904655
  73      185.949419
  74      186.504082
  75      189.248717
  76      189.249193
  77      189.926067
  78      192.615431
  79      196.247261
  80      196.657591
 
  0.0000000E+00  0.1794872E+00  0.1794872E+00  0.3125000E-02
   1       -4.057461
   2        0.305188
   3        1.069646
   4        1.069646
   5        1.181078
   6        1.671891
   7       23.120820
   8       23.120824
   9       23.899547
  10       25.350518
  11       28.474515
  12       37.901874
  13       38.574637
  14       38.574638
  15       41.658261
  16       43.330734
  17       43.330748
  18       43.819935
  19       51.954555
  20       62.435547
  21       68.546793
  22       71.812796
  23       71.812810
  24       74.670897
  25       84.737845
  26       84.737848
  27       88.863292
  28       89.072846
  29       93.283804
  30       93.283806
  31       95.599757
  32       98.192479
  33      100.514325
  34      102.477078
  35      104.347540
  36      104.347550
  37      107.292430
  38      107.292439
  39      108.881119
  40      111.480079
  41      112.011297
  42      112.011305
  43      113.790585
  44      114.298269
  45      115.703912
  46      116.003836
  47      117.029314
  48      117.029320
  49      124.480749
  50      124.516745
  51      124.516752
  52      125.768378
  53      131.096838
  54      131.096839
  55      136.883325
  56      138.387497
  57      143.446643
  58      144.466317
  59      144.466324
  60      144.647774
  61      145.185617
  62      152.749132
  63      152.749134
  64      154.704199
  65      157.698495
  66      172.021329
  67      172.021339
  68      174.636514
  69      174.800081
  70      180.976613
  71      183.352403
  72      183.352464
  73      184.390769
  74      185.185172
  75      187.258224
  76      187.258303
  77      187.937743
  78      191.575226
  79      195.899811
  80      195.907993
 
  0.0000000E+00  0.1923077E+00  0.1923077E+00  0.3125000E-02
   1       -3.847557
   2        0.253007
   3        1.119347
   4        1.119347
   5        1.147804
   6        1.691905
   7       22.686840
   8       22.686845
   9       23.688271
  10       24.908845
  11       27.802304
  12       38.593408
  13       39.107023
  14       39.107024
  15       42.229743
  16       43.810559
  17       43.810573
  18       43.927997
  19       52.401302
  20       63.425490
  21       67.758390
  22       70.984913
  23       70.984926
  24       73.915267
  25       84.901878
  26       84.901881
  27       88.708020
  28       88.956341
  29       92.124042
  30       92.124044
  31       94.514004
  32       99.348390
  33       99.526851
  34      103.282143
  35      105.062387
  36      105.062396
  37      107.046140
  38      107.046149
  39      108.524579
  40      111.152145
  41      111.558298
  42      111.558306
  43      113.080678
  44      114.076622
  45      115.931383
  46      116.271634
  47      116.619131
  48      116.619137
  49      125.051300
  50      125.320393
  51      125.320400
  52      126.561600
  53      132.098263
  54      132.098265
  55      137.509389
  56      137.930447
  57      143.449536
  58      146.046267
  59      146.122302
  60      146.122308
  61      146.953998
  62      152.891649
  63      152.891650
  64      155.076479
  65      157.627623
  66      172.223539
  67      172.223549
  68      173.897223
  69      173.966442
  70      179.849059
  71      181.812647
  72      181.812666
  73      182.847106
  74      183.898728
  75      185.286367
  76      185.286435
  77      185.965940
  78      190.612007
  79      195.396391
  80      195.564655
 
  0.0000000E+00  0.2051282E+00  0.2051282E+00  0.3125000E-02
   1       -3.627966
   2        0.199421
   3        1.118091
   4        1.171562
   5        1.171562
   6        1.712573
   7       22.263693
   8       22.263698
   9       23.486820
  10       24.408685
  11       27.209240
  12       39.305696
  13       39.631057
  14       39.631059
  15       42.799936
  16       44.043447
  17       44.328358
  18       44.328372
  19       52.836551
  20       64.450137
  21       66.985881
  22       70.151671
  23       70.151684
  24       73.190808
  25       85.081259
  26       85.081263
  27       88.173726
  28       89.056587
  29       90.946436
  30       90.946439
  31       93.614305
  32       98.531828
  33      100.503273
  34      103.997924
  35      105.491217
  36      105.491225
  37      107.083553
  38      107.083561
  39      108.181454
  40      110.710437
  41      111.115581
  42      111.115589
  43      112.389912
  44      114.067972
  45      116.169626
  46      116.267280
  47      116.267287
  48      116.564821
  49      125.571599
  50      126.140246
  51      126.140254
  52      127.371519
  53      133.063095
  54      133.063097
  55      136.630497
  56      138.926299
  57      143.448563
  58      147.460693
  59      147.805896
  60      147.805904
  61      148.743885
  62      153.089435
  63      153.089436
  64      155.512740
  65      157.636094
  66      172.438122
  67      172.438132
  68      172.998737
  69      173.229975
  70      178.749569
  71      180.285552
  72      180.285591
  73      181.318576
  74      182.646385
  75      183.334881
  76      183.334927
  77      184.019068
  78      189.739346
  79      194.524244
  80      195.242575
 
  0.0000000E+00  0.2179487E+00  0.2179487E+00  0.3125000E-02
   1       -3.400291
   2        0.144794
   3        1.093719
   4        1.226070
   5        1.226070