   8   8   0   0
  0.2392351E+02  0.5762863E-09  0.5762863E-09  0.5762863E-09  0.5000000E-15
  1.000000000000000E-004
  CAR 
 unknown system                          
      8.20172706    -10.76982687  301      0.73045043      1.00000000
    -10.770  0.0000E+00  0.0000E+00
    -10.707  0.0000E+00  0.0000E+00
    -10.643  0.0000E+00  0.0000E+00
    -10.580  0.0000E+00  0.0000E+00
    -10.517  0.0000E+00  0.0000E+00
    -10.454  0.0000E+00  0.0000E+00
    -10.390  0.0000E+00  0.0000E+00
    -10.327  0.0000E+00  0.0000E+00
    -10.264  0.0000E+00  0.0000E+00
    -10.201  0.0000E+00  0.0000E+00
    -10.137  0.0000E+00  0.0000E+00
    -10.074  0.0000E+00  0.0000E+00
    -10.011  0.0000E+00  0.0000E+00
     -9.948  0.6502E-16  0.4112E-17
     -9.884  0.1821E-14  0.1192E-15
     -9.821  0.5950E-13  0.3882E-14
     -9.758  0.1577E-11  0.1036E-12
     -9.695  0.3431E-10  0.2273E-11
     -9.632  0.6123E-09  0.4100E-10
     -9.568  0.8969E-08  0.6082E-09
     -9.505  0.1078E-06  0.7427E-08
     -9.442  0.1064E-05  0.7473E-07
     -9.379  0.8624E-05  0.6201E-06
     -9.315  0.5739E-04  0.4250E-05
     -9.252  0.3138E-03  0.2409E-04
     -9.189  0.1411E-02  0.1133E-03
     -9.126  0.5222E-02  0.4436E-03
     -9.062  0.1596E-01  0.1453E-02
     -8.999  0.4050E-01  0.4014E-02
     -8.936  0.8617E-01  0.9463E-02
     -8.873  0.1566E+00  0.1937E-01
     -8.809  0.2501E+00  0.3518E-01
     -8.746  0.3640E+00  0.5820E-01
     -8.683  0.4969E+00  0.8963E-01
     -8.620  0.6417E+00  0.1302E+00
     -8.556  0.7771E+00  0.1793E+00
     -8.493  0.8790E+00  0.2349E+00
     -8.430  0.9417E+00  0.2945E+00
     -8.367  0.9817E+00  0.3566E+00
     -8.304  0.1020E+01  0.4211E+00
     -8.240  0.1073E+01  0.4889E+00
     -8.177  0.1151E+01  0.5617E+00
     -8.114  0.1259E+01  0.6413E+00
     -8.051  0.1391E+01  0.7293E+00
     -7.987  0.1533E+01  0.8263E+00
     -7.924  0.1658E+01  0.9311E+00
     -7.861  0.1724E+01  0.1040E+01
     -7.798  0.1695E+01  0.1147E+01
     -7.734  0.1581E+01  0.1247E+01
     -7.671  0.1451E+01  0.1339E+01
     -7.608  0.1391E+01  0.1427E+01
     -7.545  0.1460E+01  0.1519E+01
     -7.481  0.1668E+01  0.1625E+01
     -7.418  0.1966E+01  0.1749E+01
     -7.355  0.2278E+01  0.1893E+01
     -7.292  0.2522E+01  0.2053E+01
     -7.228  0.2628E+01  0.2219E+01
     -7.165  0.2563E+01  0.2381E+01
     -7.102  0.2369E+01  0.2531E+01
     -7.039  0.2165E+01  0.2668E+01
     -6.976  0.2084E+01  0.2799E+01
     -6.912  0.2195E+01  0.2938E+01
     -6.849  0.2457E+01  0.3094E+01
     -6.786  0.2750E+01  0.3268E+01
     -6.723  0.2946E+01  0.3454E+01
     -6.659  0.2997E+01  0.3643E+01
     -6.596  0.2960E+01  0.3831E+01
     -6.533  0.2960E+01  0.4018E+01
     -6.470  0.3103E+01  0.4214E+01
     -6.406  0.3402E+01  0.4429E+01
     -6.343  0.3756E+01  0.4667E+01
     -6.280  0.4018E+01  0.4921E+01
     -6.217  0.4097E+01  0.5180E+01
     -6.153  0.3984E+01  0.5432E+01
     -6.090  0.3685E+01  0.5665E+01
     -6.027  0.3193E+01  0.5867E+01
     -5.964  0.2560E+01  0.6029E+01
     -5.900  0.1948E+01  0.6152E+01
     -5.837  0.1547E+01  0.6250E+01
     -5.774  0.1427E+01  0.6340E+01
     -5.711  0.1505E+01  0.6435E+01
     -5.648  0.1653E+01  0.6540E+01
     -5.584  0.1836E+01  0.6656E+01
     -5.521  0.2116E+01  0.6790E+01
     -5.458  0.2523E+01  0.6949E+01
     -5.395  0.2955E+01  0.7136E+01
     -5.331  0.3213E+01  0.7339E+01
     -5.268  0.3136E+01  0.7538E+01
     -5.205  0.2699E+01  0.7708E+01
     -5.142  0.2027E+01  0.7836E+01
     -5.078  0.1315E+01  0.7920E+01
     -5.015  0.7303E+00  0.7966E+01
     -4.952  0.3437E+00  0.7988E+01
     -4.889  0.1360E+00  0.7996E+01
     -4.825  0.4502E-01  0.7999E+01
     -4.762  0.1268E-01  0.8000E+01
     -4.699  0.4713E-02  0.8000E+01
     -4.636  0.1005E-01  0.8001E+01
     -4.572  0.3943E-01  0.8003E+01
     -4.509  0.1339E+00  0.8012E+01
     -4.446  0.3752E+00  0.8035E+01
     -4.383  0.8671E+00  0.8090E+01
     -4.319  0.1656E+01  0.8195E+01
     -4.256  0.2623E+01  0.8361E+01
     -4.193  0.3475E+01  0.8581E+01
     -4.130  0.3920E+01  0.8828E+01
     -4.067  0.3921E+01  0.9076E+01
     -4.003  0.3735E+01  0.9313E+01
     -3.940  0.3673E+01  0.9545E+01
     -3.877  0.3796E+01  0.9785E+01
     -3.814  0.3884E+01  0.1003E+02
     -3.750  0.3703E+01  0.1026E+02
     -3.687  0.3283E+01  0.1047E+02
     -3.624  0.2929E+01  0.1066E+02
     -3.561  0.2942E+01  0.1084E+02
     -3.497  0.3334E+01  0.1105E+02
     -3.434  0.3782E+01  0.1129E+02
     -3.371  0.3891E+01  0.1154E+02
     -3.308  0.3514E+01  0.1176E+02
     -3.244  0.2847E+01  0.1194E+02
     -3.181  0.2231E+01  0.1208E+02
     -3.118  0.1875E+01  0.1220E+02
     -3.055  0.1768E+01  0.1231E+02
     -2.991  0.1813E+01  0.1243E+02
     -2.928  0.1976E+01  0.1255E+02
     -2.865  0.2285E+01  0.1270E+02
     -2.802  0.2687E+01  0.1287E+02
     -2.739  0.2983E+01  0.1306E+02
     -2.675  0.2941E+01  0.1324E+02
     -2.612  0.2485E+01  0.1340E+02
     -2.549  0.1768E+01  0.1351E+02
     -2.486  0.1051E+01  0.1358E+02
     -2.422  0.5253E+00  0.1361E+02
     -2.359  0.2402E+00  0.1363E+02
     -2.296  0.1629E+00  0.1364E+02
     -2.233  0.2622E+00  0.1365E+02
     -2.169  0.5394E+00  0.1369E+02
     -2.106  0.9901E+00  0.1375E+02
     -2.043  0.1541E+01  0.1385E+02
     -1.980  0.2030E+01  0.1398E+02
     -1.916  0.2272E+01  0.1412E+02
     -1.853  0.2165E+01  0.1426E+02
     -1.790  0.1765E+01  0.1437E+02
     -1.727  0.1253E+01  0.1445E+02
     -1.663  0.8337E+00  0.1450E+02
     -1.600  0.6304E+00  0.1454E+02
     -1.537  0.6580E+00  0.1458E+02
     -1.474  0.8648E+00  0.1464E+02
     -1.411  0.1202E+01  0.1471E+02
     -1.347  0.1658E+01  0.1482E+02
     -1.284  0.2231E+01  0.1496E+02
     -1.221  0.2887E+01  0.1514E+02
     -1.158  0.3560E+01  0.1537E+02
     -1.094  0.4177E+01  0.1563E+02
     -1.031  0.4649E+01  0.1592E+02
     -0.968  0.4860E+01  0.1623E+02
     -0.905  0.4719E+01  0.1653E+02
     -0.841  0.4262E+01  0.1680E+02
     -0.778  0.3674E+01  0.1703E+02
     -0.715  0.3205E+01  0.1723E+02
     -0.652  0.3066E+01  0.1743E+02
     -0.588  0.3344E+01  0.1764E+02
     -0.525  0.3942E+01  0.1789E+02
     -0.462  0.4573E+01  0.1818E+02
     -0.399  0.4914E+01  0.1849E+02
     -0.335  0.4821E+01  0.1879E+02
     -0.272  0.4410E+01  0.1907E+02
     -0.209  0.3932E+01  0.1932E+02
     -0.146  0.3603E+01  0.1955E+02
     -0.083  0.3553E+01  0.1977E+02
     -0.019  0.3837E+01  0.2002E+02
      0.044  0.4406E+01  0.2029E+02
      0.107  0.5039E+01  0.2061E+02
      0.170  0.5434E+01  0.2096E+02
      0.234  0.5427E+01  0.2130E+02
      0.297  0.5166E+01  0.2163E+02
      0.360  0.5000E+01  0.2194E+02
      0.423  0.5165E+01  0.2227E+02
      0.487  0.5567E+01  0.2262E+02
      0.550  0.5894E+01  0.2299E+02
      0.613  0.5903E+01  0.2337E+02
      0.676  0.5590E+01  0.2372E+02
      0.740  0.5121E+01  0.2404E+02
      0.803  0.4703E+01  0.2434E+02
      0.866  0.4493E+01  0.2463E+02
      0.929  0.4517E+01  0.2491E+02
      0.993  0.4637E+01  0.2521E+02
      1.056  0.4653E+01  0.2550E+02
      1.119  0.4504E+01  0.2578E+02
      1.182  0.4318E+01  0.2606E+02
      1.245  0.4244E+01  0.2633E+02
      1.309  0.4282E+01  0.2660E+02
      1.372  0.4335E+01  0.2687E+02
      1.435  0.4369E+01  0.2715E+02
      1.498  0.4464E+01  0.2743E+02
      1.562  0.4689E+01  0.2773E+02
      1.625  0.4970E+01  0.2804E+02
      1.688  0.5124E+01  0.2836E+02
      1.751  0.5020E+01  0.2868E+02
      1.815  0.4671E+01  0.2898E+02
      1.878  0.4181E+01  0.2924E+02
      1.941  0.3620E+01  0.2947E+02
      2.004  0.3019E+01  0.2966E+02
      2.068  0.2444E+01  0.2982E+02
      2.131  0.2032E+01  0.2994E+02
      2.194  0.1925E+01  0.3007E+02
      2.257  0.2147E+01  0.3020E+02
      2.321  0.2556E+01  0.3036E+02
      2.384  0.2902E+01  0.3055E+02
      2.447  0.2990E+01  0.3074E+02
      2.510  0.2806E+01  0.3091E+02
      2.573  0.2484E+01  0.3107E+02
      2.637  0.2164E+01  0.3121E+02
      2.700  0.1882E+01  0.3133E+02
      2.763  0.1595E+01  0.3143E+02
      2.826  0.1271E+01  0.3151E+02
      2.890  0.9406E+00  0.3157E+02
      2.953  0.6786E+00  0.3161E+02
      3.016  0.5487E+00  0.3164E+02
      3.079  0.5540E+00  0.3168E+02
      3.143  0.6306E+00  0.3172E+02
      3.206  0.6929E+00  0.3176E+02
      3.269  0.6983E+00  0.3181E+02
      3.332  0.6718E+00  0.3185E+02
      3.396  0.6712E+00  0.3189E+02
      3.459  0.7346E+00  0.3194E+02
      3.522  0.8626E+00  0.3199E+02
      3.585  0.1029E+01  0.3206E+02
      3.649  0.1187E+01  0.3213E+02
      3.712  0.1280E+01  0.3221E+02
      3.775  0.1274E+01  0.3230E+02
      3.838  0.1203E+01  0.3237E+02
      3.902  0.1167E+01  0.3245E+02
      3.965  0.1256E+01  0.3252E+02
      4.028  0.1465E+01  0.3262E+02
      4.091  0.1693E+01  0.3272E+02
      4.154  0.1849E+01  0.3284E+02
      4.218  0.1957E+01  0.3297E+02
      4.281  0.2122E+01  0.3310E+02
      4.344  0.2410E+01  0.3325E+02
      4.407  0.2785E+01  0.3343E+02
      4.471  0.3179E+01  0.3363E+02
      4.534  0.3579E+01  0.3386E+02
      4.597  0.4000E+01  0.3411E+02
      4.660  0.4395E+01  0.3439E+02
      4.724  0.4676E+01  0.3468E+02
      4.787  0.4821E+01  0.3499E+02
      4.850  0.4917E+01  0.3530E+02
      4.913  0.5045E+01  0.3562E+02
      4.977  0.5168E+01  0.3594E+02
      5.040  0.5153E+01  0.3627E+02
      5.103  0.4939E+01  0.3658E+02
      5.166  0.4626E+01  0.3687E+02
      5.230  0.4370E+01  0.3715E+02
      5.293  0.4228E+01  0.3742E+02
      5.356  0.4135E+01  0.3768E+02
      5.419  0.4015E+01  0.3793E+02
      5.482  0.3834E+01  0.3818E+02
      5.546  0.3565E+01  0.3840E+02
      5.609  0.3188E+01  0.3860E+02
      5.672  0.2749E+01  0.3878E+02
      5.735  0.2367E+01  0.3893E+02
      5.799  0.2123E+01  0.3906E+02
      5.862  0.1989E+01  0.3919E+02
      5.925  0.1880E+01  0.3931E+02
      5.988  0.1763E+01  0.3942E+02
      6.052  0.1670E+01  0.3952E+02
      6.115  0.1627E+01  0.3963E+02
      6.178  0.1587E+01  0.3973E+02
      6.241  0.1458E+01  0.3982E+02
      6.305  0.1190E+01  0.3989E+02
      6.368  0.8299E+00  0.3995E+02
      6.431  0.4853E+00  0.3998E+02
      6.494  0.2355E+00  0.3999E+02
      6.558  0.9431E-01  0.4000E+02
      6.621  0.3110E-01  0.4000E+02
      6.684  0.8435E-02  0.4000E+02
      6.747  0.1880E-02  0.4000E+02
      6.810  0.3441E-03  0.4000E+02
      6.874  0.5172E-04  0.4000E+02
      6.937  0.6384E-05  0.4000E+02
      7.000  0.6469E-06  0.4000E+02
      7.063  0.5381E-07  0.4000E+02
      7.127  0.3674E-08  0.4000E+02
      7.190  0.2058E-09  0.4000E+02
      7.253  0.9464E-11  0.4000E+02
      7.316  0.3574E-12  0.4000E+02
      7.380  0.1092E-13  0.4000E+02
      7.443  0.0000E+00  0.4000E+02
      7.506  0.0000E+00  0.4000E+02
      7.569  0.0000E+00  0.4000E+02
      7.633  0.0000E+00  0.4000E+02
      7.696  0.0000E+00  0.4000E+02
      7.759  0.0000E+00  0.4000E+02
      7.822  0.0000E+00  0.4000E+02
      7.886  0.0000E+00  0.4000E+02
      7.949  0.0000E+00  0.4000E+02
      8.012  0.0000E+00  0.4000E+02
      8.075  0.0000E+00  0.4000E+02
      8.138  0.0000E+00  0.4000E+02
      8.202  0.0000E+00  0.4000E+02
