    8    8    1    1
  0.2392351E+02  0.5762863E-09  0.5762863E-09  0.5762863E-09  0.5000000E-15
  1.000000000000000E-004
  CAR 
 unknown system                          
   24   10   20
 
  0.8333333E-01  0.8333333E-01  0.8333333E-01  0.3703704E-01
   1       -8.769827
   2       -5.429314
   3       -5.429314
   4       -5.429314
   5       -4.183465
   6       -4.183465
   7       -4.183465
   8       -0.116272
   9       -0.116272
  10       -0.116272
  11        0.312216
  12        0.312216
  13        0.312216
  14        2.429694
  15        3.463990
  16        3.463990
  17        3.658585
  18        3.658585
  19        3.658586
  20        4.250707
 
  0.2500000E+00  0.8333333E-01  0.8333333E-01  0.1111111E+00
   1       -8.539606
   2       -6.511028
   3       -5.337408
   4       -5.337408
   5       -4.176195
   6       -4.176195
   7       -2.833736
   8       -0.718553
   9       -0.718553
  10        0.109173
  11        0.109173
  12        0.182612
  13        0.560934
  14        1.196550
  15        2.627217
  16        2.787330
  17        3.771369
  18        4.421149
  19        4.421151
  20        4.726697
 
  0.4166667E+00  0.8333333E-01  0.8333333E-01  0.1111111E+00
   1       -8.081657
   2       -7.401792
   3       -5.230380
   4       -5.230380
   5       -4.185003
   6       -4.185003
   7       -1.447365
   8       -1.060953
   9       -1.060953
  10       -0.236009
  11       -0.236009
  12       -0.097723
  13        0.787217
  14        1.049482
  15        1.689830
  16        1.756021
  17        4.093262
  18        4.631525
  19        5.554686
  20        5.986296
 
  0.2500000E+00  0.2500000E+00  0.8333333E-01  0.1111111E+00
   1       -8.312981
   2       -6.344569
   3       -6.344569
   4       -5.436195
   5       -4.092272
   6       -3.060685
   7       -3.060685
   8       -1.194084
   9       -0.379778
  10       -0.379778
  11        0.116067
  12        0.491031
  13        0.491031
  14        0.737636
  15        1.869254
  16        3.176840
  17        4.097860
  18        4.640386
  19        4.640386
  20        5.280510
 
  0.4166667E+00  0.2500000E+00  0.8333333E-01  0.2222222E+00
   1       -7.863656
   2       -7.201111
   3       -6.045360
   4       -5.697095
   5       -3.845123
   6       -3.452869
   7       -1.995904
   8       -1.224094
   9       -0.960767
  10       -0.894239
  11        0.214203
  12        0.490644
  13        0.716705
  14        0.980052
  15        1.287243
  16        2.364644
  17        5.026001
  18        5.061384
  19        5.565318
  20        6.201727
 
  0.4166667E+00  0.4166667E+00  0.8333333E-01  0.1111111E+00
   1       -7.435261
   2       -6.815459
   3       -6.815459
   4       -6.285110
   5       -3.339293
   6       -2.699320
   7       -2.699320
   8       -1.874907
   9       -0.998865
  10       -0.475107
  11       -0.475107
  12        0.173577
  13        1.514714
  14        1.581316
  15        1.581316
  16        2.448139
  17        4.840264
  18        5.495182
  19        5.827882
  20        5.827901
 
  0.2500000E+00  0.2500000E+00  0.2500000E+00  0.3703704E-01
   1       -8.091641
   2       -6.235259
   3       -6.235259
   4       -6.235259
   5       -3.421436
   6       -3.421436
   7       -3.421436
   8       -0.907957
   9       -0.495312
  10       -0.495312
  11       -0.495312
  12        0.960846
  13        0.960846
  14        0.960846
  15        2.658178
  16        2.658178
  17        4.379475
  18        4.379475
  19        4.379475
  20        4.450494
 
  0.4166667E+00  0.2500000E+00  0.2500000E+00  0.1111111E+00
   1       -7.655666
   2       -7.022622
   3       -6.105252
   4       -6.105252
   5       -3.771576
   6       -3.771576
   7       -2.701661
   8       -1.877476
   9       -0.435863
  10       -0.435863
  11        0.660704
  12        1.028592
  13        1.028592
  14        1.391301
  15        1.943161
  16        1.988368
  17        4.878018
  18        4.977145
  19        5.256074
  20        5.256075
 
  0.4166667E+00  0.4166667E+00  0.2500000E+00  0.1111111E+00
   1       -7.254381
   2       -6.701570
   3       -6.701570
   4       -6.338810
   5       -3.804834
   6       -3.396782
   7       -3.396782
   8       -2.743423
   9        0.064408
  10        0.519694
  11        0.519694
  12        1.316015
  13        1.657979
  14        1.695012
  15        1.695012
  16        2.363257
  17        4.785719
  18        4.984166
  19        5.352809
  20        5.352831
 
  0.4166667E+00  0.4166667E+00  0.4166667E+00  0.3703704E-01
   1       -6.929529
   2       -6.565770
   3       -6.565770
   4       -6.565770
   5       -3.907114
   6       -3.907114
   7       -3.907114
   8       -3.500377
   9        1.376177
  10        1.376177
  11        1.376177
  12        1.904094
  13        1.904094
  14        1.904094
  15        2.170527
  16        2.170527
  17        4.042166
  18        4.669473
  19        4.669473
  20        4.669473
