 running on   20 total cores
 distrk:  each k-point on   20 cores,    1 groups
 distr:  one band on    1 cores,   20 groups
 using from now: INCAR     
 vasp.5.3.3 18Dez12 (build Dec 13 2014 13:36:02) complex                        
  
 POSCAR found type information on POSCAR  Ga
 POSCAR found :  1 types and       8 ions
 scaLAPACK will be used

 ----------------------------------------------------------------------------- 
|                                                                             |
|           W    W    AA    RRRRR   N    N  II  N    N   GGGG   !!!           |
|           W    W   A  A   R    R  NN   N  II  NN   N  G    G  !!!           |
|           W    W  A    A  R    R  N N  N  II  N N  N  G       !!!           |
|           W WW W  AAAAAA  RRRRR   N  N N  II  N  N N  G  GGG   !            |
|           WW  WW  A    A  R   R   N   NN  II  N   NN  G    G                |
|           W    W  A    A  R    R  N    N  II  N    N   GGGG   !!!           |
|                                                                             |
|      For optimal performance we recommend that you set                      |
|        NPAR = 4 - approx SQRT( number of cores)                             |
|      (number of cores/NPAR must be integer)                                 |
|      This setting will greatly improve the performance of VASP for DFT.     |
|      The default NPAR=number of cores might be grossly inefficient          |
|      on modern multi-core architectures or massively parallel machines.     |
|      Do your own testing.                                                   |
|      Unfortunately you need to use the default for hybrid, GW and RPA       |
|      calculations.                                                          |
|                                                                             |
 ----------------------------------------------------------------------------- 

 WARNING: PSMAXN for non-local potential too small
 LDA part: xc-table for Pade appr. of Perdew
 POSCAR, INCAR and KPOINTS ok, starting setup
 WARNING: small aliasing (wrap around) errors must be expected
 FFT: planning ...
 WAVECAR not read
 entering main loop
       N       E                     dE             d eps       ncg     rms          rms(c)
DAV:   1     0.794093801283E+02    0.79409E+02   -0.10969E+04   400   0.131E+03
DAV:   2    -0.190080938083E+02   -0.98417E+02   -0.97997E+02   620   0.110E+02
DAV:   3    -0.210505337317E+02   -0.20424E+01   -0.20396E+01   600   0.226E+01
DAV:   4    -0.210554480050E+02   -0.49143E-02   -0.49138E-02   640   0.115E+00
DAV:   5    -0.210554490394E+02   -0.10344E-05   -0.10344E-05   580   0.131E-02    0.279E+00
RMM:   6    -0.209727903969E+02    0.82659E-01   -0.13528E-02   400   0.105E+00    0.173E+00
RMM:   7    -0.209302481083E+02    0.42542E-01   -0.35999E-02   400   0.167E+00    0.987E-02
RMM:   8    -0.209305127767E+02   -0.26467E-03   -0.52834E-04   369   0.132E-01    0.197E-02
RMM:   9    -0.209305507857E+02   -0.38009E-04   -0.71043E-05   262   0.502E-02
   1 F= -.20930551E+02 E0= -.20881031E+02  d E =-.990405E-01
