   8   8   0   0
  0.2392351E+02  0.5762863E-09  0.5762863E-09  0.5762863E-09  0.5000000E-15
  1.000000000000000E-004
  CAR 
 unknown system                          
      8.30040685    -10.83404602  301      0.75499695      1.00000000
    -10.834  0.0000E+00  0.0000E+00
    -10.770  0.0000E+00  0.0000E+00
    -10.706  0.0000E+00  0.0000E+00
    -10.643  0.0000E+00  0.0000E+00
    -10.579  0.0000E+00  0.0000E+00
    -10.515  0.0000E+00  0.0000E+00
    -10.451  0.0000E+00  0.0000E+00
    -10.388  0.0000E+00  0.0000E+00
    -10.324  0.0000E+00  0.0000E+00
    -10.260  0.0000E+00  0.0000E+00
    -10.196  0.0000E+00  0.0000E+00
    -10.132  0.0000E+00  0.0000E+00
    -10.069  0.0000E+00  0.0000E+00
    -10.005  0.8059E-17  0.5140E-18
     -9.941  0.4029E-15  0.2621E-16
     -9.877  0.1288E-13  0.8476E-15
     -9.814  0.3513E-12  0.2326E-13
     -9.750  0.7854E-11  0.5242E-12
     -9.686  0.1444E-09  0.9732E-11
     -9.622  0.2184E-08  0.1491E-09
     -9.558  0.2724E-07  0.1886E-08
     -9.495  0.2803E-06  0.1977E-07
     -9.431  0.2385E-05  0.1719E-06
     -9.367  0.1680E-04  0.1243E-05
     -9.303  0.9826E-04  0.7511E-05
     -9.240  0.4784E-03  0.3802E-04
     -9.176  0.1945E-02  0.1621E-03
     -9.112  0.6635E-02  0.5852E-03
     -9.048  0.1909E-01  0.1803E-02
     -8.984  0.4668E-01  0.4780E-02
     -8.921  0.9790E-01  0.1102E-01
     -8.857  0.1782E+00  0.2239E-01
     -8.793  0.2855E+00  0.4060E-01
     -8.729  0.4101E+00  0.6675E-01
     -8.665  0.5384E+00  0.1011E+00
     -8.602  0.6597E+00  0.1432E+00
     -8.538  0.7688E+00  0.1922E+00
     -8.474  0.8652E+00  0.2474E+00
     -8.410  0.9513E+00  0.3081E+00
     -8.347  0.1030E+01  0.3738E+00
     -8.283  0.1106E+01  0.4443E+00
     -8.219  0.1177E+01  0.5193E+00
     -8.155  0.1242E+01  0.5985E+00
     -8.091  0.1303E+01  0.6817E+00
     -8.028  0.1366E+01  0.7688E+00
     -7.964  0.1433E+01  0.8603E+00
     -7.900  0.1498E+01  0.9558E+00
     -7.836  0.1552E+01  0.1055E+01
     -7.773  0.1601E+01  0.1157E+01
     -7.709  0.1656E+01  0.1263E+01
     -7.645  0.1724E+01  0.1372E+01
     -7.581  0.1796E+01  0.1487E+01
     -7.517  0.1860E+01  0.1606E+01
     -7.454  0.1909E+01  0.1727E+01
     -7.390  0.1951E+01  0.1852E+01
     -7.326  0.2002E+01  0.1980E+01
     -7.262  0.2076E+01  0.2112E+01
     -7.198  0.2172E+01  0.2250E+01
     -7.135  0.2267E+01  0.2395E+01
     -7.071  0.2340E+01  0.2544E+01
     -7.007  0.2390E+01  0.2697E+01
     -6.943  0.2448E+01  0.2853E+01
     -6.880  0.2546E+01  0.3015E+01
     -6.816  0.2696E+01  0.3187E+01
     -6.752  0.2879E+01  0.3371E+01
     -6.688  0.3067E+01  0.3567E+01
     -6.624  0.3228E+01  0.3772E+01
     -6.561  0.3334E+01  0.3985E+01
     -6.497  0.3372E+01  0.4200E+01
     -6.433  0.3355E+01  0.4414E+01
     -6.369  0.3320E+01  0.4626E+01
     -6.306  0.3296E+01  0.4836E+01
     -6.242  0.3273E+01  0.5045E+01
     -6.178  0.3228E+01  0.5251E+01
     -6.114  0.3150E+01  0.5452E+01
     -6.050  0.3037E+01  0.5645E+01
     -5.987  0.2889E+01  0.5830E+01
     -5.923  0.2711E+01  0.6003E+01
     -5.859  0.2545E+01  0.6165E+01
     -5.795  0.2453E+01  0.6321E+01
     -5.732  0.2459E+01  0.6478E+01
     -5.668  0.2512E+01  0.6638E+01
     -5.604  0.2512E+01  0.6799E+01
     -5.540  0.2388E+01  0.6951E+01
     -5.476  0.2145E+01  0.7088E+01
     -5.413  0.1860E+01  0.7206E+01
     -5.349  0.1633E+01  0.7310E+01
     -5.285  0.1527E+01  0.7408E+01
     -5.221  0.1539E+01  0.7506E+01
     -5.157  0.1593E+01  0.7608E+01
     -5.094  0.1588E+01  0.7709E+01
     -5.030  0.1452E+01  0.7801E+01
     -4.966  0.1188E+01  0.7877E+01
     -4.902  0.8634E+00  0.7932E+01
     -4.839  0.5640E+00  0.7968E+01
     -4.775  0.3640E+00  0.7992E+01
     -4.711  0.3108E+00  0.8011E+01
     -4.647  0.4229E+00  0.8038E+01
     -4.583  0.6797E+00  0.8082E+01
     -4.520  0.1007E+01  0.8146E+01
     -4.456  0.1290E+01  0.8228E+01
     -4.392  0.1435E+01  0.8320E+01
     -4.328  0.1431E+01  0.8411E+01
     -4.265  0.1367E+01  0.8498E+01
     -4.201  0.1386E+01  0.8587E+01
     -4.137  0.1623E+01  0.8690E+01
     -4.073  0.2155E+01  0.8828E+01
     -4.009  0.2949E+01  0.9016E+01
     -3.946  0.3844E+01  0.9261E+01
     -3.882  0.4588E+01  0.9553E+01
     -3.818  0.4963E+01  0.9870E+01
     -3.754  0.4910E+01  0.1018E+02
     -3.691  0.4552E+01  0.1047E+02
     -3.627  0.4086E+01  0.1073E+02
     -3.563  0.3663E+01  0.1097E+02
     -3.499  0.3337E+01  0.1118E+02
     -3.435  0.3110E+01  0.1138E+02
     -3.372  0.2974E+01  0.1157E+02
     -3.308  0.2898E+01  0.1175E+02
     -3.244  0.2808E+01  0.1193E+02
     -3.180  0.2631E+01  0.1210E+02
     -3.116  0.2380E+01  0.1225E+02
     -3.053  0.2149E+01  0.1239E+02
     -2.989  0.2018E+01  0.1252E+02
     -2.925  0.1967E+01  0.1264E+02
     -2.861  0.1910E+01  0.1277E+02
     -2.798  0.1800E+01  0.1288E+02
     -2.734  0.1686E+01  0.1299E+02
     -2.670  0.1654E+01  0.1309E+02
     -2.606  0.1717E+01  0.1320E+02
     -2.542  0.1787E+01  0.1332E+02
     -2.479  0.1749E+01  0.1343E+02
     -2.415  0.1577E+01  0.1353E+02
     -2.351  0.1357E+01  0.1362E+02
     -2.287  0.1212E+01  0.1369E+02
     -2.224  0.1198E+01  0.1377E+02
     -2.160  0.1268E+01  0.1385E+02
     -2.096  0.1321E+01  0.1393E+02
     -2.032  0.1281E+01  0.1402E+02
     -1.968  0.1162E+01  0.1409E+02
     -1.905  0.1047E+01  0.1416E+02
     -1.841  0.1013E+01  0.1422E+02
     -1.777  0.1067E+01  0.1429E+02
     -1.713  0.1142E+01  0.1436E+02
     -1.650  0.1163E+01  0.1444E+02
     -1.586  0.1118E+01  0.1451E+02
     -1.522  0.1078E+01  0.1458E+02
     -1.458  0.1154E+01  0.1465E+02
     -1.394  0.1428E+01  0.1474E+02
     -1.331  0.1905E+01  0.1486E+02
     -1.267  0.2519E+01  0.1502E+02
     -1.203  0.3159E+01  0.1522E+02
     -1.139  0.3699E+01  0.1546E+02
     -1.075  0.4045E+01  0.1572E+02
     -1.012  0.4178E+01  0.1599E+02
     -0.948  0.4171E+01  0.1625E+02
     -0.884  0.4132E+01  0.1651E+02
     -0.820  0.4128E+01  0.1678E+02
     -0.757  0.4152E+01  0.1704E+02
     -0.693  0.4148E+01  0.1731E+02
     -0.629  0.4074E+01  0.1757E+02
     -0.565  0.3946E+01  0.1782E+02
     -0.501  0.3827E+01  0.1806E+02
     -0.438  0.3791E+01  0.1830E+02
     -0.374  0.3872E+01  0.1855E+02
     -0.310  0.4038E+01  0.1881E+02
     -0.246  0.4209E+01  0.1908E+02
     -0.183  0.4314E+01  0.1935E+02
     -0.119  0.4343E+01  0.1963E+02
     -0.055  0.4346E+01  0.1991E+02
      0.009  0.4384E+01  0.2019E+02
      0.073  0.4493E+01  0.2047E+02
      0.136  0.4679E+01  0.2077E+02
      0.200  0.4924E+01  0.2109E+02
      0.264  0.5186E+01  0.2142E+02
      0.328  0.5402E+01  0.2176E+02
      0.391  0.5513E+01  0.2211E+02
      0.455  0.5491E+01  0.2246E+02
      0.519  0.5357E+01  0.2280E+02
      0.583  0.5179E+01  0.2314E+02
      0.647  0.5041E+01  0.2346E+02
      0.710  0.4998E+01  0.2378E+02
      0.774  0.5045E+01  0.2410E+02
      0.838  0.5112E+01  0.2442E+02
      0.902  0.5113E+01  0.2475E+02
      0.966  0.5007E+01  0.2507E+02
      1.029  0.4821E+01  0.2538E+02
      1.093  0.4636E+01  0.2567E+02
      1.157  0.4525E+01  0.2596E+02
      1.221  0.4510E+01  0.2625E+02
      1.284  0.4547E+01  0.2654E+02
      1.348  0.4566E+01  0.2683E+02
      1.412  0.4522E+01  0.2712E+02
      1.476  0.4420E+01  0.2740E+02
      1.540  0.4295E+01  0.2767E+02
      1.603  0.4181E+01  0.2794E+02
      1.667  0.4100E+01  0.2820E+02
      1.731  0.4054E+01  0.2846E+02
      1.795  0.4027E+01  0.2872E+02
      1.858  0.3990E+01  0.2897E+02
      1.922  0.3909E+01  0.2922E+02
      1.986  0.3776E+01  0.2946E+02
      2.050  0.3613E+01  0.2969E+02
      2.114  0.3438E+01  0.2991E+02
      2.177  0.3243E+01  0.3012E+02
      2.241  0.2999E+01  0.3031E+02
      2.305  0.2700E+01  0.3048E+02
      2.369  0.2390E+01  0.3063E+02
      2.433  0.2128E+01  0.3077E+02
      2.496  0.1949E+01  0.3089E+02
      2.560  0.1835E+01  0.3101E+02
      2.624  0.1745E+01  0.3112E+02
      2.688  0.1640E+01  0.3123E+02
      2.751  0.1511E+01  0.3132E+02
      2.815  0.1366E+01  0.3141E+02
      2.879  0.1225E+01  0.3149E+02
      2.943  0.1100E+01  0.3156E+02
      3.007  0.9965E+00  0.3162E+02
      3.070  0.9111E+00  0.3168E+02
      3.134  0.8390E+00  0.3173E+02
      3.198  0.7769E+00  0.3178E+02
      3.262  0.7232E+00  0.3183E+02
      3.325  0.6783E+00  0.3187E+02
      3.389  0.6480E+00  0.3191E+02
      3.453  0.6433E+00  0.3196E+02
      3.517  0.6727E+00  0.3200E+02
      3.581  0.7369E+00  0.3205E+02
      3.644  0.8352E+00  0.3210E+02
      3.708  0.9700E+00  0.3216E+02
      3.772  0.1139E+01  0.3223E+02
      3.836  0.1322E+01  0.3232E+02
      3.899  0.1487E+01  0.3241E+02
      3.963  0.1613E+01  0.3252E+02
      4.027  0.1710E+01  0.3262E+02
      4.091  0.1820E+01  0.3274E+02
      4.155  0.1990E+01  0.3287E+02
      4.218  0.2225E+01  0.3301E+02
      4.282  0.2483E+01  0.3317E+02
      4.346  0.2707E+01  0.3334E+02
      4.410  0.2893E+01  0.3353E+02
      4.474  0.3083E+01  0.3372E+02
      4.537  0.3307E+01  0.3393E+02
      4.601  0.3530E+01  0.3416E+02
      4.665  0.3699E+01  0.3439E+02
      4.729  0.3827E+01  0.3464E+02
      4.792  0.3996E+01  0.3489E+02
      4.856  0.4276E+01  0.3517E+02
      4.920  0.4640E+01  0.3546E+02
      4.984  0.4990E+01  0.3578E+02
      5.048  0.5224E+01  0.3611E+02
      5.111  0.5295E+01  0.3645E+02
      5.175  0.5213E+01  0.3678E+02
      5.239  0.5035E+01  0.3710E+02
      5.303  0.4818E+01  0.3741E+02
      5.366  0.4575E+01  0.3770E+02
      5.430  0.4280E+01  0.3798E+02
      5.494  0.3923E+01  0.3823E+02
      5.558  0.3549E+01  0.3845E+02
      5.622  0.3215E+01  0.3866E+02
      5.685  0.2936E+01  0.3885E+02
      5.749  0.2684E+01  0.3902E+02
      5.813  0.2419E+01  0.3917E+02
      5.877  0.2136E+01  0.3931E+02
      5.940  0.1864E+01  0.3943E+02
      6.004  0.1650E+01  0.3953E+02
      6.068  0.1506E+01  0.3963E+02
      6.132  0.1398E+01  0.3972E+02
      6.196  0.1271E+01  0.3980E+02
      6.259  0.1085E+01  0.3987E+02
      6.323  0.8444E+00  0.3992E+02
      6.387  0.5852E+00  0.3996E+02
      6.451  0.3546E+00  0.3998E+02
      6.515  0.1850E+00  0.3999E+02
      6.578  0.8201E-01  0.4000E+02
      6.642  0.3061E-01  0.4000E+02
      6.706  0.9549E-02  0.4000E+02
      6.770  0.2477E-02  0.4000E+02
      6.833  0.5322E-03  0.4000E+02
      6.897  0.9446E-04  0.4000E+02
      6.961  0.1383E-04  0.4000E+02
      7.025  0.1666E-05  0.4000E+02
      7.089  0.1652E-06  0.4000E+02
      7.152  0.1345E-07  0.4000E+02
      7.216  0.8995E-09  0.4000E+02
      7.280  0.4936E-10  0.4000E+02
      7.344  0.2222E-11  0.4000E+02
      7.407  0.8200E-13  0.4000E+02
      7.471  0.2466E-14  0.4000E+02
      7.535  0.0000E+00  0.4000E+02
      7.599  0.0000E+00  0.4000E+02
      7.663  0.0000E+00  0.4000E+02
      7.726  0.0000E+00  0.4000E+02
      7.790  0.0000E+00  0.4000E+02
      7.854  0.0000E+00  0.4000E+02
      7.918  0.0000E+00  0.4000E+02
      7.981  0.0000E+00  0.4000E+02
      8.045  0.0000E+00  0.4000E+02
      8.109  0.0000E+00  0.4000E+02
      8.173  0.0000E+00  0.4000E+02
      8.237  0.0000E+00  0.4000E+02
      8.300  0.0000E+00  0.4000E+02
