    8    8    1    1
  0.2392351E+02  0.5762863E-09  0.5762863E-09  0.5762863E-09  0.5000000E-15
  1.000000000000000E-004
  CAR 
 unknown system                          
   24   56   20
 
  0.4166667E-01  0.4166667E-01  0.4166667E-01  0.4629630E-02
   1       -8.834046
   2       -5.147819
   3       -5.147819
   4       -5.147819
   5       -4.514827
   6       -4.514827
   7       -4.514827
   8        0.130480
   9        0.130481
  10        0.130481
  11        0.251599
  12        0.251599
  13        0.251599
  14        3.230960
  15        3.593502
  16        3.593503
  17        3.593510
  18        3.619720
  19        3.619735
  20        3.798403
 
  0.1250000E+00  0.4166667E-01  0.4166667E-01  0.1388889E-01
   1       -8.776243
   2       -5.739171
   3       -5.124471
   4       -5.124471
   5       -4.501591
   6       -4.501591
   7       -3.846842
   8       -0.126494
   9       -0.126494
  10        0.185346
  11        0.185346
  12        0.196418
  13        0.315405
  14        2.644294
  15        3.301992
  16        3.417113
  17        3.542769
  18        3.811501
  19        3.811502
  20        3.998981
 
  0.2083333E+00  0.4166667E-01  0.4166667E-01  0.1388889E-01
   1       -8.660798
   2       -6.286392
   3       -5.082259
   4       -5.082259
   5       -4.478942
   6       -4.478942
   7       -3.148931
   8       -0.422479
   9       -0.422479
  10       -0.013987
  11       -0.013987
  12        0.328066
  13        0.440976
  14        1.967984
  15        2.855571
  16        2.945589
  17        3.548400
  18        4.291540
  19        4.307782
  20        4.307785
 
  0.2916667E+00  0.4166667E-01  0.4166667E-01  0.1388889E-01
   1       -8.487873
   2       -6.785531
   3       -5.030292
   4       -5.030292
   5       -4.453606
   6       -4.453606
   7       -2.428698
   8       -0.687662
   9       -0.687662
  10       -0.249239
  11       -0.249239
  12        0.524890
  13        0.627903
  14        1.260161
  15        2.388709
  16        2.429654
  17        3.619659
  18        4.665520
  19        4.864247
  20        5.001084
 
  0.3750000E+00  0.4166667E-01  0.4166667E-01  0.1388889E-01
   1       -8.258061
   2       -7.234548
   3       -4.981637
   4       -4.981637
   5       -4.432889
   6       -4.432889
   7       -1.693087
   8       -0.880785
   9       -0.880785
  10       -0.444815
  11       -0.444815
  12        0.533988
  13        0.786136
  14        0.874638
  15        1.939101
  16        1.943004
  17        3.755247
  18        4.516387
  19        5.115485
  20        5.827611
 
  0.4583333E+00  0.4166667E-01  0.4166667E-01  0.1388889E-01
   1       -7.971922
   2       -7.630350
   3       -4.951737
   4       -4.951737
   5       -4.421704
   6       -4.421704
   7       -0.981279
   8       -0.981279
   9       -0.948210
  10       -0.555243
  11       -0.555243
  12       -0.203780
  13        1.110900
  14        1.178971
  15        1.496367
  16        1.537211
  17        3.953410
  18        4.209315
  19        5.627271
  20        6.152105
 
  0.1250000E+00  0.1250000E+00  0.4166667E-01  0.1388889E-01
   1       -8.718652
   2       -5.705251
   3       -5.705251
   4       -5.118548
   5       -4.478783
   6       -3.853856
   7       -3.853855
   8       -0.473704
   9       -0.058088
  10       -0.058088
  11        0.256760
  12        0.256760
  13        0.361414
  14        2.087939
  15        3.023645
  16        3.543626
  17        3.724402
  18        3.816787
  19        3.816788
  20        4.359532
 
  0.2083333E+00  0.1250000E+00  0.4166667E-01  0.2777778E-01
   1       -8.603595
   2       -6.245301
   3       -5.640140
   4       -5.114773
   5       -4.432911
   6       -3.872740
   7       -3.183105
   8       -0.786013
   9       -0.361812
  10        0.078570
  11        0.085988
  12        0.347918
  13        0.399970
  14        1.464636
  15        2.577772
  16        3.267368
  17        3.859036
  18        3.976331
  19        4.339280
  20        4.609215
 
  0.2916667E+00  0.1250000E+00  0.4166667E-01  0.2777778E-01
   1       -8.431340
   2       -6.739564
   3       -5.549783
   4       -5.126501
   5       -4.363298
   6       -3.911272
   7       -2.499470
   8       -1.019083
   9       -0.653510
  10       -0.094941
  11        0.197866
  12        0.281015
  13        0.617413
  14        0.829199
  15        2.107000
  16        2.768391
  17        3.955252
  18        4.519101
  19        4.948377
  20        5.043405
 
  0.3750000E+00  0.1250000E+00  0.4166667E-01  0.2777778E-01
   1       -8.202457
   2       -7.184553
   3       -5.443702
   4       -5.165989
   5       -4.272423
   6       -3.975535
   7       -1.813223
   8       -1.147933
   9       -0.899475
  10       -0.211611
  11        0.008019
  12        0.186475
  13        0.545013
  14        0.911634
  15        1.654414
  16        2.233072
  17        4.109792
  18        4.900170
  19        5.259747
  20        5.365678
 
  0.4583333E+00  0.1250000E+00  0.4166667E-01  0.2777778E-01
   1       -7.917704
   2       -7.578033
   3       -5.334559
   4       -5.237529
   5       -4.168275
   6       -4.064307
   7       -1.165182
   8       -1.133065
   9       -1.076872
  10       -0.466385
  11       -0.230041
  12       -0.149088
  13        0.865363
  14        1.237353
  15        1.283244
  16        1.728221
  17        4.321726
  18        4.587570
  19        5.839271
  20        6.131257
 
  0.2083333E+00  0.2083333E+00  0.4166667E-01  0.1388889E-01
   1       -8.489379
   2       -6.165179
   3       -6.165179
   4       -5.181670
   5       -4.343562
   6       -3.254420
   7       -3.254420
   8       -1.070360
   9       -0.239878
  10       -0.239878
  11        0.286414
  12        0.286414
  13        0.576257
  14        0.884917
  15        2.139947
  16        3.371464
  17        3.932883
  18        4.411238
  19        4.411238
  20        5.168345
 
  0.2916667E+00  0.2083333E+00  0.4166667E-01  0.2777778E-01
   1       -8.318482
   2       -6.648885
   3       -6.050089
   4       -5.284087
   5       -4.216195
   6       -3.366706
   7       -2.637948
   8       -1.247876
   9       -0.566616
  10       -0.057283
  11        0.192391
  12        0.299133
  13        0.586776
  14        0.612228
  15        1.678940
  16        3.070428
  17        4.232525
  18        4.531436
  19        5.130118
  20        5.462926
 
  0.3750000E+00  0.2083333E+00  0.4166667E-01  0.2777778E-01
   1       -8.091592
   2       -7.086123
   3       -5.906703
   4       -5.419195
   5       -4.058083
   6       -3.516491
   7       -2.031804
   8       -1.307862
   9       -0.862233
  10       -0.281210
  11        0.170703
  12        0.184608
  13        0.506788
  14        0.982402
  15        1.238037
  16        2.559967
  17        4.703656
  18        4.821805
  19        5.495676
  20        5.830991
 
  0.4583333E+00  0.2083333E+00  0.4166667E-01  0.2777778E-01
   1       -7.809692
   2       -7.474026
   3       -5.745073
   4       -5.577529
   5       -3.878979
   6       -3.692988
   7       -1.439178
   8       -1.253925
   9       -1.099368
  10       -0.858526
  11        0.230644
  12        0.356407
  13        0.483575
  14        0.836422
  15        1.461259
  16        1.999772
  17        4.927108
  18        5.196973
  19        5.606650
  20        6.231576
 
  0.2916667E+00  0.2916667E+00  0.4166667E-01  0.1388889E-01
   1       -8.149834
   2       -6.516169
   3       -6.516169
   4       -5.480211
   5       -4.031235
   6       -2.833644
   7       -2.833644
   8       -1.358068
   9       -0.416404
  10       -0.416404
  11       -0.241591
  12        0.594124
  13        0.594124
  14        0.888582
  15        1.227537
  16        3.084334
  17        4.233948
  18        5.263815
  19        5.263819
  20        5.578399
 
  0.3750000E+00  0.2916667E+00  0.4166667E-01  0.2777778E-01
   1       -7.926234
   2       -6.940960
   3       -6.346372
   4       -5.699549
   5       -3.816046
   6       -3.069216
   7       -2.314429
   8       -1.350528
   9       -0.772997
  10       -0.750291
  11       -0.201791
  12        0.659541
  13        0.798151
  14        0.966800
  15        1.089345
  16        2.754480
  17        4.576193
  18        5.444454
  19        5.771903
  20        6.104946
 
  0.4583333E+00  0.2916667E+00  0.4166667E-01  0.2777778E-01
   1       -7.648977
   2       -7.319704
   3       -6.146699
   4       -5.926740
   5       -3.576934
   6       -3.323334
   7       -1.803275
   8       -1.292300
   9       -1.236613
  10       -1.030799
  11        0.075238
  12        0.410554
  13        0.772083
  14        0.897090
  15        1.650299
  16        2.230496
  17        5.204890
  18        5.666882
  19        5.893298
  20        6.022360
 
  0.3750000E+00  0.3750000E+00  0.4166667E-01  0.1388889E-01
   1       -7.707468
   2       -6.752145
   3       -6.752145
   4       -5.987448
   5       -3.549390
   6       -2.628170
   7       -2.628170
   8       -1.284847
   9       -1.259019
  10       -0.564285
  11       -0.564285
  12        0.381007
  13        1.220790
  14        1.220790
  15        1.283435
  16        2.689268
  17        4.613031
  18        5.624256
  19        6.264547
  20        6.271023
 
  0.4583333E+00  0.3750000E+00  0.4166667E-01  0.2777778E-01
   1       -7.437121
   2       -7.117332
   3       -6.525174
   4       -6.267007
   5       -3.258725
   6       -2.948418
   7       -2.184276
   8       -1.729727
   9       -1.122275
  10       -0.877254
  11       -0.309557
  12        0.007858
  13        1.342756
  14        1.393837
  15        1.806092
  16        2.336027
  17        4.985163
  18        5.633620
  19        5.717449
  20        6.008971
 
  0.4583333E+00  0.4583333E+00  0.4166667E-01  0.1388889E-01
   1       -7.176262
   2       -6.870717
   3       -6.870717
   4       -6.584906
   5       -2.919680
   6       -2.560221
   7       -2.560221
   8       -2.154309
   9       -0.921874
  10       -0.647023
  11       -0.647023
  12       -0.348709
  13        1.740466
  14        1.864467
  15        1.864467
  16        2.223676
  17        5.035723
  18        5.405868
  19        5.405869
  20        5.420899
 
  0.1250000E+00  0.1250000E+00  0.1250000E+00  0.4629630E-02
   1       -8.661263
   2       -5.677465
   3       -5.677465
   4       -5.677465
   5       -3.864882
   6       -3.864882
   7       -3.864882
   8       -0.384330
   9       -0.384330
  10       -0.384330
  11        0.423057
  12        0.423057
  13        0.423057
  14        1.577364
  15        3.269269
  16        3.269269
  17        3.776191
  18        3.776191
  19        3.776191
  20        4.891802
 
  0.2083333E+00  0.1250000E+00  0.1250000E+00  0.1388889E-01
   1       -8.546644
   2       -6.207706
   3       -5.626982
   4       -5.626982
   5       -3.888913
   6       -3.888913
   7       -3.229048
   8       -0.678532
   9       -0.678532
  10       -0.204402
  11        0.415613
  12        0.415613
  13        0.546276
  14        0.990631
  15        2.864002
  16        3.092218
  17        3.879842
  18        4.038500
  19        4.038500
  20        5.078213
 
  0.2916667E+00  0.1250000E+00  0.1250000E+00  0.1388889E-01
   1       -8.375118
   2       -6.695557
   3       -5.563405
   4       -5.563405
   5       -3.926041
   6       -3.926041
   7       -2.592279
   8       -0.899367
   9       -0.899367
  10        0.069220
  11        0.286543
  12        0.286543
  13        0.400295
  14        0.729254
  15        2.427045
  16        2.588781
  17        4.035476
  18        4.581734
  19        4.581735
  20        5.344536
 
  0.3750000E+00  0.1250000E+00  0.1250000E+00  0.1388889E-01
   1       -8.147319
   2       -7.136327
   3       -5.502875
   4       -5.502875
   5       -3.967892
   6       -3.967892
   7       -1.966063
   8       -1.034949
   9       -1.034949
  10       -0.183951
  11        0.134563
  12        0.134563
  13        0.436645
  14        0.969888
  15        2.002541
  16        2.002725
  17        4.241994
  18        5.111128
  19        5.319685
  20        5.319711
 
  0.4583333E+00  0.1250000E+00  0.1250000E+00  0.1388889E-01
   1       -7.864093
   2       -7.526564
   3       -5.465088
   4       -5.465088
   5       -3.996639
   6       -3.996639
   7       -1.357848
   8       -1.095290
   9       -1.095290
  10       -0.766666
  11        0.038354
  12        0.038354
  13        0.893373
  14        1.265773
  15        1.423708
  16        1.612239
  17        4.497404
  18        4.793866
  19        6.123654
  20        6.187924
 
  0.2083333E+00  0.2083333E+00  0.1250000E+00  0.1388889E-01
   1       -8.432939
   2       -6.135454
   3       -6.135454
   4       -5.609012
   5       -3.915936
   6       -3.321375
   7       -3.321375
   8       -0.925749
   9       -0.464591
  10       -0.464591
  11        0.432087
  12        0.552516
  13        0.552516
  14        0.634933
  15        2.551534
  16        3.173070
  17        4.002811
  18        4.161555
  19        4.161555
  20        4.940545
 
  0.2916667E+00  0.2083333E+00  0.1250000E+00  0.2777778E-01
   1       -8.262939
   2       -6.609441
   3       -6.034565
   4       -5.602051
   5       -3.937938
   6       -3.453261
   7       -2.765311
   8       -1.068926
   9       -0.670846
  10       -0.148896
  11       -0.125092
  12        0.469073
  13        0.675581
  14        0.761211
  15        2.103424
  16        2.896353
  17        4.301866
  18        4.343021
  19        4.705710
  20        5.180229
 
  0.3750000E+00  0.2083333E+00  0.1250000E+00  0.2777778E-01
   1       -8.037386
   2       -7.040710
   3       -5.915710
   4       -5.625972
   5       -3.929479
   6       -3.607202
   7       -2.228493
   8       -1.108670
   9       -0.832063
  10       -0.665630
  11        0.251513
  12        0.393588
  13        0.587685
  14        1.048307
  15        1.640173
  16        2.403569
  17        4.577804
  18        4.886071
  19        5.357756
  20        5.437946
 
  0.4583333E+00  0.2083333E+00  0.1250000E+00  0.2777778E-01
   1       -7.757400
   2       -7.424417
   3       -5.794765
   4       -5.692058
   5       -3.869293
   6       -3.755522
   7       -1.706767
   8       -1.190302
   9       -1.064694
  10       -0.964707
  11        0.390482
  12        0.467943
  13        0.704427
  14        1.173020
  15        1.422646
  16        1.884420
  17        4.855806
  18        5.151108
  19        5.664505
  20        6.300407
 
  0.2916667E+00  0.2916667E+00  0.1250000E+00  0.1388889E-01
   1       -8.095417
   2       -6.485289
   3       -6.485289
   4       -5.681716
   5       -3.916639
   6       -2.993053
   7       -2.993053
   8       -1.128090
   9       -0.651473
  10       -0.358693
  11       -0.358693
  12        0.755317
  13        0.755317
  14        0.941471
  15        1.669489
  16        2.970286
  17        4.304558
  18        4.887371
  19        4.887371
  20        5.134567
 
  0.3750000E+00  0.2916667E+00  0.1250000E+00  0.2777778E-01
   1       -7.873577
   2       -6.900669
   3       -6.329580
   4       -5.808737
   5       -3.835623
   6       -3.242941
   7       -2.545295
   8       -1.157372
   9       -1.084208
  10       -0.570953
  11        0.004795
  12        0.782691
  13        1.022463
  14        1.150145
  15        1.229584
  16        2.666854
  17        4.641597
  18        5.118306
  19        5.368943
  20        5.608466
 
  0.4583333E+00  0.2916667E+00  0.1250000E+00  0.2777778E-01
   1       -7.598953
   2       -7.273582
   3       -6.153608
   4       -5.973055
   5       -3.687908
   6       -3.483604
   7       -2.097538
   8       -1.638180
   9       -0.959970
  10       -0.779677
  11        0.394656
  12        0.802794
  13        0.862575
  14        0.965373
  15        1.637456
  16        2.170625
  17        5.260466
  18        5.371789
  19        5.536217
  20        6.058233
 
  0.3750000E+00  0.3750000E+00  0.1250000E+00  0.1388889E-01
   1       -7.657270
   2       -6.720687
   3       -6.720687
   4       -6.032797
   5       -3.676395
   6       -2.873118
   7       -2.873118
   8       -1.629748
   9       -0.970943
  10       -0.272175
  11       -0.272175
  12        0.816665
  13        1.274197
  14        1.274197
  15        1.327664
  16        2.644188
  17        4.674170
  18        5.349482
  19        5.799912
  20        5.799925
 
  0.4583333E+00  0.3750000E+00  0.1250000E+00  0.2777778E-01
   1       -7.390601
   2       -7.076706
   3       -6.507815
   4       -6.273183
   5       -3.455389
   6       -3.183079
   7       -2.485811
   8       -2.072915
   9       -0.784934
  10       -0.544702
  11        0.059568
  12        0.423336
  13        1.389581
  14        1.436664
  15        1.814096
  16        2.314873
  17        5.033299
  18        5.526374
  19        5.652977
  20        5.799373
 
  0.4583333E+00  0.4583333E+00  0.1250000E+00  0.1388889E-01
   1       -7.135693
   2       -6.838935
   3       -6.838935
   4       -6.567390
   5       -3.174291
   6       -2.849035
   7       -2.849035
   8       -2.478364
   9       -0.548469
  10       -0.262033
  11       -0.262033
  12        0.063291
  13        1.768938
  14        1.884207
  15        1.884207
  16        2.224626
  17        5.065301
  18        5.351717
  19        5.394559
  20        5.394557
 
  0.2083333E+00  0.2083333E+00  0.2083333E+00  0.4629630E-02
   1       -8.320370
   2       -6.080712
   3       -6.080712
   4       -6.080712
   5       -3.443700
   6       -3.443700
   7       -3.443700
   8       -0.639247
   9       -0.639247
  10       -0.639247
  11       -0.108470
  12        0.751585
  13        0.751585
  14        0.751585
  15        2.851427
  16        2.851427
  17        4.141567
  18        4.141567
  19        4.141567
  20        4.612942
 
  0.2916667E+00  0.2083333E+00  0.2083333E+00  0.1388889E-01
   1       -8.152235
   2       -6.533693
   3       -6.011742
   4       -6.011742
   5       -3.593770
   6       -3.593770
   7       -2.983922
   8       -0.729736
   9       -0.729736
  10       -0.643614
  11       -0.222439
  12        0.803156
  13        0.803156
  14        0.925085
  15        2.480351
  16        2.672464
  17        4.345365
  18        4.439003
  19        4.439003
  20        4.756299
 
  0.3750000E+00  0.2083333E+00  0.2083333E+00  0.1388889E-01
   1       -7.929510
   2       -6.951911
   3       -5.945522
   4       -5.945522
   5       -3.731295
   6       -3.731295
   7       -2.538432
   8       -1.153738
   9       -0.755343
  10       -0.755343
  11        0.300334
  12        0.753840
  13        0.753840
  14        1.151816
  15        2.104530
  16        2.150946
  17        4.605791
  18        5.011856
  19        5.011856
  20        5.111508
 
  0.4583333E+00  0.2083333E+00  0.2083333E+00  0.1388889E-01
   1       -7.653616
   2       -7.326675
   3       -5.903949
   4       -5.903949
   5       -3.814181
   6       -3.814181
   7       -2.093829
   8       -1.635249
   9       -0.753681
  10       -0.753681
  11        0.698180
  12        0.698180
  13        0.896749
  14        1.428549
  15        1.528573
  16        1.749688
  17        4.899085
  18        5.149359
  19        5.773799
  20        5.773807
 
  0.2916667E+00  0.2916667E+00  0.2083333E+00  0.1388889E-01
   1       -7.987177
   2       -6.428243
   3       -6.428243
   4       -5.998045
   5       -3.733219
   6       -3.242242
   7       -3.242242
   8       -1.157061
   9       -0.709844
  10       -0.267089
  11       -0.267089
  12        0.997302
  13        0.997302
  14        1.047106
  15        2.188447
  16        2.763813
  17        4.443328
  18        4.618956
  19        4.638706
  20        4.638706
 
  0.3750000E+00  0.2916667E+00  0.2083333E+00  0.2777778E-01
   1       -7.769101
   2       -6.823281
   3       -6.304500
   4       -6.014700
   5       -3.815834
   6       -3.491224
   7       -2.882298
   8       -1.641302
   9       -0.627915
  10       -0.316603
  11        0.267821
  12        1.015614
  13        1.134210
  14        1.264170
  15        1.778943
  16        2.498815
  17        4.767533
  18        4.883286
  19        4.885063
  20        5.188875
 
  0.4583333E+00  0.2916667E+00  0.2083333E+00  0.2777778E-01
   1       -7.500028
   2       -7.183174
   3       -6.179634
   4       -6.076513
   5       -3.803832
   6       -3.689343
   7       -2.501527
   8       -2.089343
   9       -0.513303
  10       -0.399722
  11        0.816956
  12        1.047938
  13        1.105854
  14        1.325789
  15        1.614694
  16        2.048744
  17        5.124878
  18        5.175904
  19        5.360016
  20        5.867379
 
  0.3750000E+00  0.3750000E+00  0.2083333E+00  0.1388889E-01
   1       -7.558160
   2       -6.662697
   3       -6.662697
   4       -6.134702
   5       -3.810034
   6       -3.210831
   7       -3.210831
   8       -2.099047
   9       -0.457112
  10        0.142441
  11        0.142441
  12        1.379628
  13        1.379628
  14        1.396835
  15        1.413783
  16        2.553852
  17        4.786487
  18        4.880865
  19        5.375797
  20        5.375799
 
  0.4583333E+00  0.3750000E+00  0.2083333E+00  0.2777778E-01
   1       -7.299635
   2       -6.998666
   3       -6.481476
   4       -6.297693
   5       -3.697983
   6       -3.491086
   7       -2.886195
   8       -2.515507
   9       -0.255957
  10       -0.045564
  11        0.582400
  12        0.997586
  13        1.483406
  14        1.520608
  15        1.823341
  16        2.267143
  17        5.108443
  18        5.138092
  19        5.403918
  20        5.607008
 
  0.4583333E+00  0.4583333E+00  0.2083333E+00  0.1388889E-01
   1       -7.057290
   2       -6.780499
   3       -6.780499
   4       -6.540713
   5       -3.500101
   6       -3.224442
   7       -3.224442
   8       -2.896987
   9        0.018046
  10        0.302966
  11        0.302966
  12        0.651047
  13        1.822616
  14        1.919395
  15        1.919395
  16        2.222438
  17        5.086263
  18        5.130355
  19        5.294502
  20        5.294503
 
  0.2916667E+00  0.2916667E+00  0.2916667E+00  0.4629630E-02
   1       -7.826207
   2       -6.356432
   3       -6.356432
   4       -6.356432
   5       -3.503816
   6       -3.503816
   7       -3.503816
   8       -1.655097
   9       -0.162058
  10       -0.162058
  11       -0.162058
  12        1.203041
  13        1.203041
  14        1.203041
  15        2.499194
  16        2.499194
  17        4.311472
  18        4.640813
  19        4.640813
  20        4.640813
 
  0.3750000E+00  0.2916667E+00  0.2916667E+00  0.1388889E-01
   1       -7.614504
   2       -6.715698
   3       -6.287450
   4       -6.287450
   5       -3.717321
   6       -3.717321
   7       -3.230242
   8       -2.118587
   9       -0.064764
  10       -0.064764
  11        0.462710
  12        1.302776
  13        1.302776
  14        1.404452
  15        2.208516
  16        2.304975
  17        4.478230
  18        4.866342
  19        4.935336
  20        4.935336
 
  0.4583333E+00  0.2916667E+00  0.2916667E+00  0.1388889E-01
   1       -7.355050
   2       -7.052788
   3       -6.243963
   4       -6.243963
   5       -3.837493
   6       -3.837493
   7       -2.908545
   8       -2.538248
   9       -0.002853
  10       -0.002853
  11        1.122067
  12        1.324504
  13        1.324504
  14        1.645783
  15        1.766370
  16        1.918412
  17        4.864856
  18        5.017555
  19        5.446404
  20        5.446410
 
  0.3750000E+00  0.3750000E+00  0.2916667E+00  0.1388889E-01
   1       -7.412576
   2       -6.589376
   3       -6.589376
   4       -6.300667
   5       -3.856533
   6       -3.534463
   7       -3.534463
   8       -2.558584
   9        0.161454
  10        0.537666
  11        0.537666
  12        1.531956
  13        1.531956
  14        1.538892
  15        1.952784
  16        2.421263
  17        4.384093
  18        4.915103
  19        5.079517
  20        5.079515
 
  0.4583333E+00  0.3750000E+00  0.2916667E+00  0.2777778E-01
   1       -7.168467
   2       -6.889882
   3       -6.463001
   4       -6.360057
   5       -3.872073
   6       -3.758446
   7       -3.274610
   8       -2.946693
   9        0.354117
  10        0.491428
  11        1.110744
  12        1.585004
  13        1.623300
  14        1.643927
  15        1.830950
  16        2.183300
  17        4.672645
  18        5.014243
  19        5.135268
  20        5.325087
 
  0.4583333E+00  0.4583333E+00  0.2916667E+00  0.1388889E-01
   1       -6.948192
   2       -6.706606
   3       -6.706606
   4       -6.521711
   5       -3.779305
   6       -3.572505
   7       -3.572505
   8       -3.296467
   9        0.661899
  10        0.921649
  11        0.921649
  12        1.282290
  13        1.895109
  14        1.962926
  15        1.962926
  16        2.210282
  17        4.718690
  18        4.989124
  19        4.994263
  20        4.994263
 
  0.3750000E+00  0.3750000E+00  0.3750000E+00  0.4629630E-02
   1       -7.225545
   2       -6.519002
   3       -6.519002
   4       -6.519002
   5       -3.785293
   6       -3.785293
   7       -3.785293
   8       -2.973385
   9        0.824648
  10        0.824648
  11        0.824648
  12        1.696374
  13        1.696374
  14        1.696374
  15        2.253558
  16        2.253558
  17        4.106349
  18        4.948804
  19        4.948804
  20        4.948804
 
  0.4583333E+00  0.3750000E+00  0.3750000E+00  0.1388889E-01
   1       -7.004622
   2       -6.762576
   3       -6.474531
   4       -6.474531
   5       -3.922955
   6       -3.922955
   7       -3.602763
   8       -3.326525
   9        0.969982
  10        0.969982
  11        1.480323
  12        1.804537
  13        1.804537
  14        1.876475
  15        2.034742
  16        2.067431
  17        4.299048
  18        4.708918
  19        4.951150
  20        4.951150
 
  0.4583333E+00  0.4583333E+00  0.3750000E+00  0.1388889E-01
   1       -6.820537
   2       -6.635507
   3       -6.635507
   4       -6.532805
   5       -3.950765
   6       -3.837629
   7       -3.837629
   8       -3.631187
   9        1.313671
  10        1.502139
  11        1.502139
  12        1.850279
  13        1.978521
  14        2.006425
  15        2.006425
  16        2.181280
  17        4.251999
  18        4.565944
  19        4.565944
  20        4.660158
 
  0.4583333E+00  0.4583333E+00  0.4583333E+00  0.4629630E-02
   1       -6.693306
   2       -6.590729
   3       -6.590729
   4       -6.590729
   5       -3.982153
   6       -3.982153
   7       -3.982153
   8       -3.869261
   9        1.880421
  10        1.880421
  11        1.880421
  12        2.060431
  13        2.060431
  14        2.060431
  15        2.130571
  16        2.130571
  17        4.004331
  18        4.223735
  19        4.223735
  20        4.223735
