       N       E                     dE             d eps       ncg     rms          rms(c)
DAV:   1     0.108181159748E+02    0.10818E+02   -0.41585E+03  2260   0.315E+02
DAV:   2    -0.206148291658E+02   -0.31433E+02   -0.30924E+02  3580   0.591E+01
DAV:   3    -0.210218155760E+02   -0.40699E+00   -0.40652E+00  2360   0.916E+00
DAV:   4    -0.210226608935E+02   -0.84532E-03   -0.84524E-03  4260   0.366E-01
DAV:   5    -0.210226609302E+02   -0.36688E-07   -0.36767E-07  2280   0.212E-03    0.280E+00
RMM:   6    -0.209366645628E+02    0.85996E-01   -0.77789E-03  2240   0.650E-01    0.174E+00
RMM:   7    -0.208901059263E+02    0.46559E-01   -0.22285E-02  2244   0.106E+00    0.859E-02
RMM:   8    -0.208904117651E+02   -0.30584E-03   -0.43828E-04  1972   0.976E-02    0.196E-02
RMM:   9    -0.208904514317E+02   -0.39667E-04   -0.81759E-05  1461   0.466E-02
   1 F= -.20890451E+02 E0= -.20839854E+02  d E =-.101195E+00
