 vasp.5.3.3 18Dez12 (build Dec 13 2014 13:36:02) complex                        
  
 executed on             LinuxIFC date 2018.11.27  23:29:29
 running on   20 total cores
 distrk:  each k-point on   20 cores,    1 groups
 distr:  one band on NCORES_PER_BAND=   1 cores,   20 groups


--------------------------------------------------------------------------------------------------------


 INCAR:
 POTCAR:   PAW_PBE Ga 08Apr2002                   

 ----------------------------------------------------------------------------- 
|                                                                             |
|           W    W    AA    RRRRR   N    N  II  N    N   GGGG   !!!           |
|           W    W   A  A   R    R  NN   N  II  NN   N  G    G  !!!           |
|           W    W  A    A  R    R  N N  N  II  N N  N  G       !!!           |
|           W WW W  AAAAAA  RRRRR   N  N N  II  N  N N  G  GGG   !            |
|           WW  WW  A    A  R   R   N   NN  II  N   NN  G    G                |
|           W    W  A    A  R    R  N    N  II  N    N   GGGG   !!!           |
|                                                                             |
|      For optimal performance we recommend that you set                      |
|        NPAR = 4 - approx SQRT( number of cores)                             |
|      (number of cores/NPAR must be integer)                                 |
|      This setting will greatly improve the performance of VASP for DFT.     |
|      The default NPAR=number of cores might be grossly inefficient          |
|      on modern multi-core architectures or massively parallel machines.     |
|      Do your own testing.                                                   |
|      Unfortunately you need to use the default for hybrid, GW and RPA       |
|      calculations.                                                          |
|                                                                             |
 ----------------------------------------------------------------------------- 

 POTCAR:   PAW_PBE Ga 08Apr2002                   
   VRHFIN =Ga: s2p1                                                             
   LEXCH  = PE                                                                  
   EATOM  =    58.8688 eV,    4.3267 Ry                                         
                                                                                
   TITEL  = PAW_PBE Ga 08Apr2002                                                
   LULTRA =        F    use ultrasoft PP ?                                      
   IUNSCR =        1    unscreen: 0-lin 1-nonlin 2-no                           
   RPACOR =    2.170    partial core radius                                     
   POMASS =   69.723; ZVAL   =    3.000    mass and valenz                      
   RCORE  =    2.600    outmost cutoff radius                                   
   RWIGS  =    2.650; RWIGS  =    1.402    wigner-seitz radius (au A)           
   ENMAX  =  134.678; ENMIN  =  101.009 eV                                      
   ICORE  =        3    local potential                                         
   LCOR   =        T    correct aug charges                                     
   LPAW   =        T    paw PP                                                  
   EAUG   =  320.264                                                            
   DEXC   =    -.116                                                            
   RMAX   =    3.973    core radius for proj-oper                               
   RAUG   =    1.300    factor for augmentation sphere                          
   RDEP   =    2.684    radius for radial grids                                 
   QCUT   =   -3.146; QGAM   =    6.292    optimization parameters              
                                                                                
   Description                                                                  
     l     E      TYP  RCUT    TYP  RCUT                                        
     0   .000     23  2.600                                                     
     0   .000     23  2.600                                                     
     1   .000     23  2.600                                                     
     1   .000     23  2.600                                                     
     2   .100     23  2.600                                                     
     3  -.100      7  2.600                                                     
  local pseudopotential read in
  partial core-charges read in
  atomic valenz-charges read in
  non local Contribution for L=           0  read in
    real space projection operators read in
  non local Contribution for L=           0  read in
    real space projection operators read in
  non local Contribution for L=           1  read in
    real space projection operators read in
  non local Contribution for L=           1  read in
    real space projection operators read in
  non local Contribution for L=           2  read in
    real space projection operators read in
    PAW grid and wavefunctions read in
 
   number of l-projection  operators is LMAX  =           5
   number of lm-projection operators is LMMAX =          13
 
 PAW_PBE Ga 08Apr2002                   :
 energy of atom  1       EATOM=  -58.8688
 kinetic energy error for atom=    0.0024 (will be added to EATOM!!)
 
 
 POSCAR: MP POSCAR: Ge8                          
  positions in direct lattice
  No initial velocities read in
 exchange correlation table for  LEXCH =        8
   RHO(1)=    0.500       N(1)  =     2000
   RHO(2)=  100.500       N(2)  =     4000
 


--------------------------------------------------------------------------------------------------------


 ion  position               nearest neighbor table
   1  0.750  0.750  0.750-   2 2.50   4 2.50   6 2.50   8 2.50
   2  0.500  0.000  0.000-   1 2.50   3 2.50   5 2.50   7 2.50
   3  0.750  0.250  0.250-   2 2.50   4 2.50   6 2.50   8 2.50
   4  0.500  0.500  0.500-   1 2.50   3 2.50   5 2.50   7 2.50
   5  0.250  0.750  0.250-   2 2.50   4 2.50   6 2.50   8 2.50
   6  0.000  0.000  0.500-   1 2.50   3 2.50   5 2.50   7 2.50
   7  0.250  0.250  0.750-   2 2.50   4 2.50   6 2.50   8 2.50
   8  0.000  0.500  0.000-   1 2.50   3 2.50   5 2.50   7 2.50
 
  LATTYP: Found a simple cubic cell.
 ALAT       =     5.7628630000
  
  Lattice vectors:
  
 A1 = (   5.7628630000,   0.0000000000,   0.0000000000)
 A2 = (   0.0000000000,   5.7628630000,   0.0000000000)
 A3 = (   0.0000000000,   0.0000000000,   5.7628630000)


Analysis of symmetry for initial positions (statically):
=====================================================================
 Subroutine PRICEL returns following result:
 
  LATTYP: Found a face centered cubic cell.
 ALAT       =     5.7628630000
  
  Lattice vectors:
  
 A1 = (   2.8814315000,   2.8814315000,  -0.0000000000)
 A2 = (   2.8814315000,   0.0000000000,  -2.8814315000)
 A3 = (   0.0000000000,   2.8814315000,  -2.8814315000)
 
   4 primitive cells build up your supercell.
 

 Routine SETGRP: Setting up the symmetry group for a 
 simple cubic supercell.


 Subroutine GETGRP returns: Found 48 space group operations
 (whereof 24 operations were pure point group operations)
 out of a pool of 48 trial point group operations.


The static configuration has the point symmetry T_d .
 The point group associated with its full space group is O_h .


Analysis of symmetry for dynamics (positions and initial velocities):
=====================================================================
 Subroutine PRICEL returns following result:
 
  LATTYP: Found a face centered cubic cell.
 ALAT       =     5.7628630000
  
  Lattice vectors:
  
 A1 = (   2.8814315000,   2.8814315000,  -0.0000000000)
 A2 = (   2.8814315000,   0.0000000000,  -2.8814315000)
 A3 = (   0.0000000000,   2.8814315000,  -2.8814315000)
 
   4 primitive cells build up your supercell.
 

 Routine SETGRP: Setting up the symmetry group for a 
 simple cubic supercell.


 Subroutine GETGRP returns: Found 48 space group operations
 (whereof 24 operations were pure point group operations)
 out of a pool of 48 trial point group operations.


The dynamic configuration has the point symmetry T_d .
 The point group associated with its full space group is O_h .


 irot  :   1
 --------------------------------------------------------------------
 isymop:   1   0   0
           0   1   0
           0   0   1

 gtrans:     0.0000000     0.0000000    -0.0000000

 ptrans:     0.0000000     0.0000000     0.0000000
 rotmap:
 (   1->   1)  (   2->   2)  (   3->   3)  (   4->   4)  (   5->   5) 
 (   6->   6)  (   7->   7)  (   8->   8) 

 ptrans:     0.5000000     0.5000000     0.0000000
 rotmap:
 (   1->   7)  (   2->   8)  (   3->   5)  (   4->   6)  (   5->   3) 
 (   6->   4)  (   7->   1)  (   8->   2) 

 ptrans:     0.5000000     0.0000000     0.5000000
 rotmap:
 (   1->   5)  (   2->   6)  (   3->   7)  (   4->   8)  (   5->   1) 
 (   6->   2)  (   7->   3)  (   8->   4) 

 ptrans:     0.0000000     0.5000000     0.5000000
 rotmap:
 (   1->   3)  (   2->   4)  (   3->   1)  (   4->   2)  (   5->   7) 
 (   6->   8)  (   7->   5)  (   8->   6) 


 irot  :   2
 --------------------------------------------------------------------
 isymop:   0   0   1
           1   0   0
           0   1   0

 gtrans:     0.0000000     0.0000000    -0.0000000

 ptrans:     0.0000000     0.0000000     0.0000000
 rotmap:
 (   1->   1)  (   2->   8)  (   3->   5)  (   4->   4)  (   5->   7) 
 (   6->   2)  (   7->   3)  (   8->   6) 

 ptrans:     0.5000000     0.5000000     0.0000000
 rotmap:
 (   1->   7)  (   2->   2)  (   3->   3)  (   4->   6)  (   5->   1) 
 (   6->   8)  (   7->   5)  (   8->   4) 

 ptrans:     0.5000000     0.0000000     0.5000000
 rotmap:
 (   1->   5)  (   2->   4)  (   3->   1)  (   4->   8)  (   5->   3) 
 (   6->   6)  (   7->   7)  (   8->   2) 

 ptrans:     0.0000000     0.5000000     0.5000000
 rotmap:
 (   1->   3)  (   2->   6)  (   3->   7)  (   4->   2)  (   5->   5) 
 (   6->   4)  (   7->   1)  (   8->   8) 


 irot  :   3
 --------------------------------------------------------------------
 isymop:   0   1   0
           0   0   1
           1   0   0

 gtrans:     0.0000000     0.0000000    -0.0000000

 ptrans:     0.0000000     0.0000000     0.0000000
 rotmap:
 (   1->   1)  (   2->   6)  (   3->   7)  (   4->   4)  (   5->   3) 
 (   6->   8)  (   7->   5)  (   8->   2) 

 ptrans:     0.5000000     0.5000000     0.0000000
 rotmap:
 (   1->   7)  (   2->   4)  (   3->   1)  (   4->   6)  (   5->   5) 
 (   6->   2)  (   7->   3)  (   8->   8) 

 ptrans:     0.5000000     0.0000000     0.5000000
 rotmap:
 (   1->   5)  (   2->   2)  (   3->   3)  (   4->   8)  (   5->   7) 
 (   6->   4)  (   7->   1)  (   8->   6) 

 ptrans:     0.0000000     0.5000000     0.5000000
 rotmap:
 (   1->   3)  (   2->   8)  (   3->   5)  (   4->   2)  (   5->   1) 
 (   6->   6)  (   7->   7)  (   8->   4) 


 irot  :   4
 --------------------------------------------------------------------
 isymop:   0   1   0
          -1   0   0
           0   0  -1

 gtrans:     0.0000000     0.0000000    -0.0000000

 ptrans:     0.0000000     0.0000000     0.0000000
 rotmap:
 (   1->   3)  (   2->   8)  (   3->   7)  (   4->   4)  (   5->   1) 
 (   6->   6)  (   7->   5)  (   8->   2) 

 ptrans:     0.5000000     0.5000000     0.0000000
 rotmap:
 (   1->   5)  (   2->   2)  (   3->   1)  (   4->   6)  (   5->   7) 
 (   6->   4)  (   7->   3)  (   8->   8) 

 ptrans:     0.5000000     0.0000000     0.5000000
 rotmap:
 (   1->   7)  (   2->   4)  (   3->   3)  (   4->   8)  (   5->   5) 
 (   6->   2)  (   7->   1)  (   8->   6) 

 ptrans:     0.0000000     0.5000000     0.5000000
 rotmap:
 (   1->   1)  (   2->   6)  (   3->   5)  (   4->   2)  (   5->   3) 
 (   6->   8)  (   7->   7)  (   8->   4) 


 irot  :   5
 --------------------------------------------------------------------
 isymop:   1   0   0
           0   0  -1
           0  -1   0

 gtrans:     0.0000000     0.0000000    -0.0000000

 ptrans:     0.0000000     0.0000000     0.0000000
 rotmap:
 (   1->   3)  (   2->   2)  (   3->   1)  (   4->   4)  (   5->   5) 
 (   6->   8)  (   7->   7)  (   8->   6) 

 ptrans:     0.5000000     0.5000000     0.0000000
 rotmap:
 (   1->   5)  (   2->   8)  (   3->   7)  (   4->   6)  (   5->   3) 
 (   6->   2)  (   7->   1)  (   8->   4) 

 ptrans:     0.5000000     0.0000000     0.5000000
 rotmap:
 (   1->   7)  (   2->   6)  (   3->   5)  (   4->   8)  (   5->   1) 
 (   6->   4)  (   7->   3)  (   8->   2) 

 ptrans:     0.0000000     0.5000000     0.5000000
 rotmap:
 (   1->   1)  (   2->   4)  (   3->   3)  (   4->   2)  (   5->   7) 
 (   6->   6)  (   7->   5)  (   8->   8) 


 irot  :   6
 --------------------------------------------------------------------
 isymop:   0   0   1
           0  -1   0
          -1   0   0

 gtrans:     0.0000000     0.0000000    -0.0000000

 ptrans:     0.0000000     0.0000000     0.0000000
 rotmap:
 (   1->   3)  (   2->   6)  (   3->   5)  (   4->   4)  (   5->   7) 
 (   6->   2)  (   7->   1)  (   8->   8) 

 ptrans:     0.5000000     0.5000000     0.0000000
 rotmap:
 (   1->   5)  (   2->   4)  (   3->   3)  (   4->   6)  (   5->   1) 
 (   6->   8)  (   7->   7)  (   8->   2) 

 ptrans:     0.5000000     0.0000000     0.5000000
 rotmap:
 (   1->   7)  (   2->   2)  (   3->   1)  (   4->   8)  (   5->   3) 
 (   6->   6)  (   7->   5)  (   8->   4) 

 ptrans:     0.0000000     0.5000000     0.5000000
 rotmap:
 (   1->   1)  (   2->   8)  (   3->   7)  (   4->   2)  (   5->   5) 
 (   6->   4)  (   7->   3)  (   8->   6) 


 irot  :   7
 --------------------------------------------------------------------
 isymop:  -1   0   0
           0  -1   0
           0   0   1

 gtrans:     0.0000000     0.0000000    -0.0000000

 ptrans:     0.0000000     0.0000000     0.0000000
 rotmap:
 (   1->   7)  (   2->   2)  (   3->   5)  (   4->   4)  (   5->   3) 
 (   6->   6)  (   7->   1)  (   8->   8) 

 ptrans:     0.5000000     0.5000000     0.0000000
 rotmap:
 (   1->   1)  (   2->   8)  (   3->   3)  (   4->   6)  (   5->   5) 
 (   6->   4)  (   7->   7)  (   8->   2) 

 ptrans:     0.5000000     0.0000000     0.5000000
 rotmap:
 (   1->   3)  (   2->   6)  (   3->   1)  (   4->   8)  (   5->   7) 
 (   6->   2)  (   7->   5)  (   8->   4) 

 ptrans:     0.0000000     0.5000000     0.5000000
 rotmap:
 (   1->   5)  (   2->   4)  (   3->   7)  (   4->   2)  (   5->   1) 
 (   6->   8)  (   7->   3)  (   8->   6) 


 irot  :   8
 --------------------------------------------------------------------
 isymop:   0   0  -1
          -1   0   0
           0   1   0

 gtrans:     0.0000000     0.0000000    -0.0000000

 ptrans:     0.0000000     0.0000000     0.0000000
 rotmap:
 (   1->   7)  (   2->   8)  (   3->   3)  (   4->   4)  (   5->   1) 
 (   6->   2)  (   7->   5)  (   8->   6) 

 ptrans:     0.5000000     0.5000000     0.0000000
 rotmap:
 (   1->   1)  (   2->   2)  (   3->   5)  (   4->   6)  (   5->   7) 
 (   6->   8)  (   7->   3)  (   8->   4) 

 ptrans:     0.5000000     0.0000000     0.5000000
 rotmap:
 (   1->   3)  (   2->   4)  (   3->   7)  (   4->   8)  (   5->   5) 
 (   6->   6)  (   7->   1)  (   8->   2) 

 ptrans:     0.0000000     0.5000000     0.5000000
 rotmap:
 (   1->   5)  (   2->   6)  (   3->   1)  (   4->   2)  (   5->   3) 
 (   6->   4)  (   7->   7)  (   8->   8) 


 irot  :   9
 --------------------------------------------------------------------
 isymop:   0  -1   0
           0   0  -1
           1   0   0

 gtrans:     0.0000000     0.0000000    -0.0000000

 ptrans:     0.0000000     0.0000000     0.0000000
 rotmap:
 (   1->   7)  (   2->   6)  (   3->   1)  (   4->   4)  (   5->   5) 
 (   6->   8)  (   7->   3)  (   8->   2) 

 ptrans:     0.5000000     0.5000000     0.0000000
 rotmap:
 (   1->   1)  (   2->   4)  (   3->   7)  (   4->   6)  (   5->   3) 
 (   6->   2)  (   7->   5)  (   8->   8) 

 ptrans:     0.5000000     0.0000000     0.5000000
 rotmap:
 (   1->   3)  (   2->   2)  (   3->   5)  (   4->   8)  (   5->   1) 
 (   6->   4)  (   7->   7)  (   8->   6) 

 ptrans:     0.0000000     0.5000000     0.5000000
 rotmap:
 (   1->   5)  (   2->   8)  (   3->   3)  (   4->   2)  (   5->   7) 
 (   6->   6)  (   7->   1)  (   8->   4) 


 irot  :  10
 --------------------------------------------------------------------
 isymop:   0  -1   0
           1   0   0
           0   0  -1

 gtrans:     0.0000000     0.0000000    -0.0000000

 ptrans:     0.0000000     0.0000000     0.0000000
 rotmap:
 (   1->   5)  (   2->   8)  (   3->   1)  (   4->   4)  (   5->   7) 
 (   6->   6)  (   7->   3)  (   8->   2) 

 ptrans:     0.5000000     0.5000000     0.0000000
 rotmap:
 (   1->   3)  (   2->   2)  (   3->   7)  (   4->   6)  (   5->   1) 
 (   6->   4)  (   7->   5)  (   8->   8) 

 ptrans:     0.5000000     0.0000000     0.5000000
 rotmap:
 (   1->   1)  (   2->   4)  (   3->   5)  (   4->   8)  (   5->   3) 
 (   6->   2)  (   7->   7)  (   8->   6) 

 ptrans:     0.0000000     0.5000000     0.5000000
 rotmap:
 (   1->   7)  (   2->   6)  (   3->   3)  (   4->   2)  (   5->   5) 
 (   6->   8)  (   7->   1)  (   8->   4) 


 irot  :  11
 --------------------------------------------------------------------
 isymop:  -1   0   0
           0   0   1
           0  -1   0

 gtrans:     0.0000000     0.0000000    -0.0000000

 ptrans:     0.0000000     0.0000000     0.0000000
 rotmap:
 (   1->   5)  (   2->   2)  (   3->   7)  (   4->   4)  (   5->   3) 
 (   6->   8)  (   7->   1)  (   8->   6) 

 ptrans:     0.5000000     0.5000000     0.0000000
 rotmap:
 (   1->   3)  (   2->   8)  (   3->   1)  (   4->   6)  (   5->   5) 
 (   6->   2)  (   7->   7)  (   8->   4) 

 ptrans:     0.5000000     0.0000000     0.5000000
 rotmap:
 (   1->   1)  (   2->   6)  (   3->   3)  (   4->   8)  (   5->   7) 
 (   6->   4)  (   7->   5)  (   8->   2) 

 ptrans:     0.0000000     0.5000000     0.5000000
 rotmap:
 (   1->   7)  (   2->   4)  (   3->   5)  (   4->   2)  (   5->   1) 
 (   6->   6)  (   7->   3)  (   8->   8) 


 irot  :  12
 --------------------------------------------------------------------
 isymop:   0   0  -1
           0   1   0
          -1   0   0

 gtrans:     0.0000000     0.0000000    -0.0000000

 ptrans:     0.0000000     0.0000000     0.0000000
 rotmap:
 (   1->   5)  (   2->   6)  (   3->   3)  (   4->   4)  (   5->   1) 
 (   6->   2)  (   7->   7)  (   8->   8) 

 ptrans:     0.5000000     0.5000000     0.0000000
 rotmap:
 (   1->   3)  (   2->   4)  (   3->   5)  (   4->   6)  (   5->   7) 
 (   6->   8)  (   7->   1)  (   8->   2) 

 ptrans:     0.5000000     0.0000000     0.5000000
 rotmap:
 (   1->   1)  (   2->   2)  (   3->   7)  (   4->   8)  (   5->   5) 
 (   6->   6)  (   7->   3)  (   8->   4) 

 ptrans:     0.0000000     0.5000000     0.5000000
 rotmap:
 (   1->   7)  (   2->   8)  (   3->   1)  (   4->   2)  (   5->   3) 
 (   6->   4)  (   7->   5)  (   8->   6) 


 irot  :  13
 --------------------------------------------------------------------
 isymop:   0   0   1
          -1   0   0
           0  -1   0

 gtrans:     0.0000000     0.0000000    -0.0000000

 ptrans:     0.0000000     0.0000000     0.0000000
 rotmap:
 (   1->   3)  (   2->   8)  (   3->   7)  (   4->   4)  (   5->   5) 
 (   6->   2)  (   7->   1)  (   8->   6) 

 ptrans:     0.5000000     0.5000000     0.0000000
 rotmap:
 (   1->   5)  (   2->   2)  (   3->   1)  (   4->   6)  (   5->   3) 
 (   6->   8)  (   7->   7)  (   8->   4) 

 ptrans:     0.5000000     0.0000000     0.5000000
 rotmap:
 (   1->   7)  (   2->   4)  (   3->   3)  (   4->   8)  (   5->   1) 
 (   6->   6)  (   7->   5)  (   8->   2) 

 ptrans:     0.0000000     0.5000000     0.5000000
 rotmap:
 (   1->   1)  (   2->   6)  (   3->   5)  (   4->   2)  (   5->   7) 
 (   6->   4)  (   7->   3)  (   8->   8) 


 irot  :  14
 --------------------------------------------------------------------
 isymop:   0   1   0
           0   0  -1
          -1   0   0

 gtrans:     0.0000000     0.0000000    -0.0000000

 ptrans:     0.0000000     0.0000000     0.0000000
 rotmap:
 (   1->   3)  (   2->   6)  (   3->   5)  (   4->   4)  (   5->   1) 
 (   6->   8)  (   7->   7)  (   8->   2) 

 ptrans:     0.5000000     0.5000000     0.0000000
 rotmap:
 (   1->   5)  (   2->   4)  (   3->   3)  (   4->   6)  (   5->   7) 
 (   6->   2)  (   7->   1)  (   8->   8) 

 ptrans:     0.5000000     0.0000000     0.5000000
 rotmap:
 (   1->   7)  (   2->   2)  (   3->   1)  (   4->   8)  (   5->   5) 
 (   6->   4)  (   7->   3)  (   8->   6) 

 ptrans:     0.0000000     0.5000000     0.5000000
 rotmap:
 (   1->   1)  (   2->   8)  (   3->   7)  (   4->   2)  (   5->   3) 
 (   6->   6)  (   7->   5)  (   8->   4) 


 irot  :  15
 --------------------------------------------------------------------
 isymop:   1   0   0
           0  -1   0
           0   0  -1

 gtrans:     0.0000000     0.0000000    -0.0000000

 ptrans:     0.0000000     0.0000000     0.0000000
 rotmap:
 (   1->   3)  (   2->   2)  (   3->   1)  (   4->   4)  (   5->   7) 
 (   6->   6)  (   7->   5)  (   8->   8) 

 ptrans:     0.5000000     0.5000000     0.0000000
 rotmap:
 (   1->   5)  (   2->   8)  (   3->   7)  (   4->   6)  (   5->   1) 
 (   6->   4)  (   7->   3)  (   8->   2) 

 ptrans:     0.5000000     0.0000000     0.5000000
 rotmap:
 (   1->   7)  (   2->   6)  (   3->   5)  (   4->   8)  (   5->   3) 
 (   6->   2)  (   7->   1)  (   8->   4) 

 ptrans:     0.0000000     0.5000000     0.5000000
 rotmap:
 (   1->   1)  (   2->   4)  (   3->   3)  (   4->   2)  (   5->   5) 
 (   6->   8)  (   7->   7)  (   8->   6) 


 irot  :  16
 --------------------------------------------------------------------
 isymop:   0   0  -1
           0  -1   0
           1   0   0

 gtrans:     0.0000000     0.0000000    -0.0000000

 ptrans:     0.0000000     0.0000000     0.0000000
 rotmap:
 (   1->   7)  (   2->   6)  (   3->   1)  (   4->   4)  (   5->   3) 
 (   6->   2)  (   7->   5)  (   8->   8) 

 ptrans:     0.5000000     0.5000000     0.0000000
 rotmap:
 (   1->   1)  (   2->   4)  (   3->   7)  (   4->   6)  (   5->   5) 
 (   6->   8)  (   7->   3)  (   8->   2) 

 ptrans:     0.5000000     0.0000000     0.5000000
 rotmap:
 (   1->   3)  (   2->   2)  (   3->   5)  (   4->   8)  (   5->   7) 
 (   6->   6)  (   7->   1)  (   8->   4) 

 ptrans:     0.0000000     0.5000000     0.5000000
 rotmap:
 (   1->   5)  (   2->   8)  (   3->   3)  (   4->   2)  (   5->   1) 
 (   6->   4)  (   7->   7)  (   8->   6) 


 irot  :  17
 --------------------------------------------------------------------
 isymop:   0  -1   0
          -1   0   0
           0   0   1

 gtrans:     0.0000000     0.0000000    -0.0000000

 ptrans:     0.0000000     0.0000000     0.0000000
 rotmap:
 (   1->   7)  (   2->   8)  (   3->   3)  (   4->   4)  (   5->   5) 
 (   6->   6)  (   7->   1)  (   8->   2) 

 ptrans:     0.5000000     0.5000000     0.0000000
 rotmap:
 (   1->   1)  (   2->   2)  (   3->   5)  (   4->   6)  (   5->   3) 
 (   6->   4)  (   7->   7)  (   8->   8) 

 ptrans:     0.5000000     0.0000000     0.5000000
 rotmap:
 (   1->   3)  (   2->   4)  (   3->   7)  (   4->   8)  (   5->   1) 
 (   6->   2)  (   7->   5)  (   8->   6) 

 ptrans:     0.0000000     0.5000000     0.5000000
 rotmap:
 (   1->   5)  (   2->   6)  (   3->   1)  (   4->   2)  (   5->   7) 
 (   6->   8)  (   7->   3)  (   8->   4) 


 irot  :  18
 --------------------------------------------------------------------
 isymop:  -1   0   0
           0   0  -1
           0   1   0

 gtrans:     0.0000000     0.0000000    -0.0000000

 ptrans:     0.0000000     0.0000000     0.0000000
 rotmap:
 (   1->   7)  (   2->   2)  (   3->   5)  (   4->   4)  (   5->   1) 
 (   6->   8)  (   7->   3)  (   8->   6) 

 ptrans:     0.5000000     0.5000000     0.0000000
 rotmap:
 (   1->   1)  (   2->   8)  (   3->   3)  (   4->   6)  (   5->   7) 
 (   6->   2)  (   7->   5)  (   8->   4) 

 ptrans:     0.5000000     0.0000000     0.5000000
 rotmap:
 (   1->   3)  (   2->   6)  (   3->   1)  (   4->   8)  (   5->   5) 
 (   6->   4)  (   7->   7)  (   8->   2) 

 ptrans:     0.0000000     0.5000000     0.5000000
 rotmap:
 (   1->   5)  (   2->   4)  (   3->   7)  (   4->   2)  (   5->   3) 
 (   6->   6)  (   7->   1)  (   8->   8) 


 irot  :  19
 --------------------------------------------------------------------
 isymop:   0  -1   0
           0   0   1
          -1   0   0

 gtrans:     0.0000000     0.0000000    -0.0000000

 ptrans:     0.0000000     0.0000000     0.0000000
 rotmap:
 (   1->   5)  (   2->   6)  (   3->   3)  (   4->   4)  (   5->   7) 
 (   6->   8)  (   7->   1)  (   8->   2) 

 ptrans:     0.5000000     0.5000000     0.0000000
 rotmap:
 (   1->   3)  (   2->   4)  (   3->   5)  (   4->   6)  (   5->   1) 
 (   6->   2)  (   7->   7)  (   8->   8) 

 ptrans:     0.5000000     0.0000000     0.5000000
 rotmap:
 (   1->   1)  (   2->   2)  (   3->   7)  (   4->   8)  (   5->   3) 
 (   6->   4)  (   7->   5)  (   8->   6) 

 ptrans:     0.0000000     0.5000000     0.5000000
 rotmap:
 (   1->   7)  (   2->   8)  (   3->   1)  (   4->   2)  (   5->   5) 
 (   6->   6)  (   7->   3)  (   8->   4) 


 irot  :  20
 --------------------------------------------------------------------
 isymop:  -1   0   0
           0   1   0
           0   0  -1

 gtrans:     0.0000000     0.0000000    -0.0000000

 ptrans:     0.0000000     0.0000000     0.0000000
 rotmap:
 (   1->   5)  (   2->   2)  (   3->   7)  (   4->   4)  (   5->   1) 
 (   6->   6)  (   7->   3)  (   8->   8) 

 ptrans:     0.5000000     0.5000000     0.0000000
 rotmap:
 (   1->   3)  (   2->   8)  (   3->   1)  (   4->   6)  (   5->   7) 
 (   6->   4)  (   7->   5)  (   8->   2) 

 ptrans:     0.5000000     0.0000000     0.5000000
 rotmap:
 (   1->   1)  (   2->   6)  (   3->   3)  (   4->   8)  (   5->   5) 
 (   6->   2)  (   7->   7)  (   8->   4) 

 ptrans:     0.0000000     0.5000000     0.5000000
 rotmap:
 (   1->   7)  (   2->   4)  (   3->   5)  (   4->   2)  (   5->   3) 
 (   6->   8)  (   7->   1)  (   8->   6) 


 irot  :  21
 --------------------------------------------------------------------
 isymop:   0   0  -1
           1   0   0
           0  -1   0

 gtrans:     0.0000000     0.0000000    -0.0000000

 ptrans:     0.0000000     0.0000000     0.0000000
 rotmap:
 (   1->   5)  (   2->   8)  (   3->   1)  (   4->   4)  (   5->   3) 
 (   6->   2)  (   7->   7)  (   8->   6) 

 ptrans:     0.5000000     0.5000000     0.0000000
 rotmap:
 (   1->   3)  (   2->   2)  (   3->   7)  (   4->   6)  (   5->   5) 
 (   6->   8)  (   7->   1)  (   8->   4) 

 ptrans:     0.5000000     0.0000000     0.5000000
 rotmap:
 (   1->   1)  (   2->   4)  (   3->   5)  (   4->   8)  (   5->   7) 
 (   6->   6)  (   7->   3)  (   8->   2) 

 ptrans:     0.0000000     0.5000000     0.5000000
 rotmap:
 (   1->   7)  (   2->   6)  (   3->   3)  (   4->   2)  (   5->   1) 
 (   6->   4)  (   7->   5)  (   8->   8) 


 irot  :  22
 --------------------------------------------------------------------
 isymop:   1   0   0
           0   0   1
           0   1   0

 gtrans:     0.0000000     0.0000000    -0.0000000

 ptrans:     0.0000000     0.0000000     0.0000000
 rotmap:
 (   1->   1)  (   2->   2)  (   3->   3)  (   4->   4)  (   5->   7) 
 (   6->   8)  (   7->   5)  (   8->   6) 

 ptrans:     0.5000000     0.5000000     0.0000000
 rotmap:
 (   1->   7)  (   2->   8)  (   3->   5)  (   4->   6)  (   5->   1) 
 (   6->   2)  (   7->   3)  (   8->   4) 

 ptrans:     0.5000000     0.0000000     0.5000000
 rotmap:
 (   1->   5)  (   2->   6)  (   3->   7)  (   4->   8)  (   5->   3) 
 (   6->   4)  (   7->   1)  (   8->   2) 

 ptrans:     0.0000000     0.5000000     0.5000000
 rotmap:
 (   1->   3)  (   2->   4)  (   3->   1)  (   4->   2)  (   5->   5) 
 (   6->   6)  (   7->   7)  (   8->   8) 


 irot  :  23
 --------------------------------------------------------------------
 isymop:   0   1   0
           1   0   0
           0   0   1

 gtrans:     0.0000000     0.0000000    -0.0000000

 ptrans:     0.0000000     0.0000000     0.0000000
 rotmap:
 (   1->   1)  (   2->   8)  (   3->   5)  (   4->   4)  (   5->   3) 
 (   6->   6)  (   7->   7)  (   8->   2) 

 ptrans:     0.5000000     0.5000000     0.0000000
 rotmap:
 (   1->   7)  (   2->   2)  (   3->   3)  (   4->   6)  (   5->   5) 
 (   6->   4)  (   7->   1)  (   8->   8) 

 ptrans:     0.5000000     0.0000000     0.5000000
 rotmap:
 (   1->   5)  (   2->   4)  (   3->   1)  (   4->   8)  (   5->   7) 
 (   6->   2)  (   7->   3)  (   8->   6) 

 ptrans:     0.0000000     0.5000000     0.5000000
 rotmap:
 (   1->   3)  (   2->   6)  (   3->   7)  (   4->   2)  (   5->   1) 
 (   6->   8)  (   7->   5)  (   8->   4) 


 irot  :  24
 --------------------------------------------------------------------
 isymop:   0   0   1
           0   1   0
           1   0   0

 gtrans:     0.0000000     0.0000000    -0.0000000

 ptrans:     0.0000000     0.0000000     0.0000000
 rotmap:
 (   1->   1)  (   2->   6)  (   3->   7)  (   4->   4)  (   5->   5) 
 (   6->   2)  (   7->   3)  (   8->   8) 

 ptrans:     0.5000000     0.5000000     0.0000000
 rotmap:
 (   1->   7)  (   2->   4)  (   3->   1)  (   4->   6)  (   5->   3) 
 (   6->   8)  (   7->   5)  (   8->   2) 

 ptrans:     0.5000000     0.0000000     0.5000000
 rotmap:
 (   1->   5)  (   2->   2)  (   3->   3)  (   4->   8)  (   5->   1) 
 (   6->   6)  (   7->   7)  (   8->   4) 

 ptrans:     0.0000000     0.5000000     0.5000000
 rotmap:
 (   1->   3)  (   2->   8)  (   3->   5)  (   4->   2)  (   5->   7) 
 (   6->   4)  (   7->   1)  (   8->   6) 


 irot  :  25
 --------------------------------------------------------------------
 isymop:  -1   0   0
           0  -1   0
           0   0  -1

 gtrans:     0.7500000     0.7500000    -0.7500000

 ptrans:     0.0000000     0.0000000     0.0000000
 rotmap:
 (   1->   6)  (   2->   5)  (   3->   8)  (   4->   7)  (   5->   2) 
 (   6->   1)  (   7->   4)  (   8->   3) 

 ptrans:     0.5000000     0.5000000     0.0000000
 rotmap:
 (   1->   4)  (   2->   3)  (   3->   2)  (   4->   1)  (   5->   8) 
 (   6->   7)  (   7->   6)  (   8->   5) 

 ptrans:     0.5000000     0.0000000     0.5000000
 rotmap:
 (   1->   2)  (   2->   1)  (   3->   4)  (   4->   3)  (   5->   6) 
 (   6->   5)  (   7->   8)  (   8->   7) 

 ptrans:     0.0000000     0.5000000     0.5000000
 rotmap:
 (   1->   8)  (   2->   7)  (   3->   6)  (   4->   5)  (   5->   4) 
 (   6->   3)  (   7->   2)  (   8->   1) 


 irot  :  26
 --------------------------------------------------------------------
 isymop:   0   0  -1
          -1   0   0
           0  -1   0

 gtrans:     0.7500000     0.7500000    -0.7500000

 ptrans:     0.0000000     0.0000000     0.0000000
 rotmap:
 (   1->   6)  (   2->   3)  (   3->   2)  (   4->   7)  (   5->   4) 
 (   6->   5)  (   7->   8)  (   8->   1) 

 ptrans:     0.5000000     0.5000000     0.0000000
 rotmap:
 (   1->   4)  (   2->   5)  (   3->   8)  (   4->   1)  (   5->   6) 
 (   6->   3)  (   7->   2)  (   8->   7) 

 ptrans:     0.5000000     0.0000000     0.5000000
 rotmap:
 (   1->   2)  (   2->   7)  (   3->   6)  (   4->   3)  (   5->   8) 
 (   6->   1)  (   7->   4)  (   8->   5) 

 ptrans:     0.0000000     0.5000000     0.5000000
 rotmap:
 (   1->   8)  (   2->   1)  (   3->   4)  (   4->   5)  (   5->   2) 
 (   6->   7)  (   7->   6)  (   8->   3) 


 irot  :  27
 --------------------------------------------------------------------
 isymop:   0  -1   0
           0   0  -1
          -1   0   0

 gtrans:     0.7500000     0.7500000    -0.7500000

 ptrans:     0.0000000     0.0000000     0.0000000
 rotmap:
 (   1->   6)  (   2->   1)  (   3->   4)  (   4->   7)  (   5->   8) 
 (   6->   3)  (   7->   2)  (   8->   5) 

 ptrans:     0.5000000     0.5000000     0.0000000
 rotmap:
 (   1->   4)  (   2->   7)  (   3->   6)  (   4->   1)  (   5->   2) 
 (   6->   5)  (   7->   8)  (   8->   3) 

 ptrans:     0.5000000     0.0000000     0.5000000
 rotmap:
 (   1->   2)  (   2->   5)  (   3->   8)  (   4->   3)  (   5->   4) 
 (   6->   7)  (   7->   6)  (   8->   1) 

 ptrans:     0.0000000     0.5000000     0.5000000
 rotmap:
 (   1->   8)  (   2->   3)  (   3->   2)  (   4->   5)  (   5->   6) 
 (   6->   1)  (   7->   4)  (   8->   7) 


 irot  :  28
 --------------------------------------------------------------------
 isymop:   0  -1   0
           1   0   0
           0   0   1

 gtrans:     0.7500000     0.7500000    -0.7500000

 ptrans:     0.0000000     0.0000000     0.0000000
 rotmap:
 (   1->   8)  (   2->   3)  (   3->   4)  (   4->   7)  (   5->   6) 
 (   6->   1)  (   7->   2)  (   8->   5) 

 ptrans:     0.5000000     0.5000000     0.0000000
 rotmap:
 (   1->   2)  (   2->   5)  (   3->   6)  (   4->   1)  (   5->   4) 
 (   6->   7)  (   7->   8)  (   8->   3) 

 ptrans:     0.5000000     0.0000000     0.5000000
 rotmap:
 (   1->   4)  (   2->   7)  (   3->   8)  (   4->   3)  (   5->   2) 
 (   6->   5)  (   7->   6)  (   8->   1) 

 ptrans:     0.0000000     0.5000000     0.5000000
 rotmap:
 (   1->   6)  (   2->   1)  (   3->   2)  (   4->   5)  (   5->   8) 
 (   6->   3)  (   7->   4)  (   8->   7) 


 irot  :  29
 --------------------------------------------------------------------
 isymop:  -1   0   0
           0   0   1
           0   1   0

 gtrans:     0.7500000     0.7500000    -0.7500000

 ptrans:     0.0000000     0.0000000     0.0000000
 rotmap:
 (   1->   8)  (   2->   5)  (   3->   6)  (   4->   7)  (   5->   2) 
 (   6->   3)  (   7->   4)  (   8->   1) 

 ptrans:     0.5000000     0.5000000     0.0000000
 rotmap:
 (   1->   2)  (   2->   3)  (   3->   4)  (   4->   1)  (   5->   8) 
 (   6->   5)  (   7->   6)  (   8->   7) 

 ptrans:     0.5000000     0.0000000     0.5000000
 rotmap:
 (   1->   4)  (   2->   1)  (   3->   2)  (   4->   3)  (   5->   6) 
 (   6->   7)  (   7->   8)  (   8->   5) 

 ptrans:     0.0000000     0.5000000     0.5000000
 rotmap:
 (   1->   6)  (   2->   7)  (   3->   8)  (   4->   5)  (   5->   4) 
 (   6->   1)  (   7->   2)  (   8->   3) 


 irot  :  30
 --------------------------------------------------------------------
 isymop:   0   0  -1
           0   1   0
           1   0   0

 gtrans:     0.7500000     0.7500000    -0.7500000

 ptrans:     0.0000000     0.0000000     0.0000000
 rotmap:
 (   1->   8)  (   2->   1)  (   3->   2)  (   4->   7)  (   5->   4) 
 (   6->   5)  (   7->   6)  (   8->   3) 

 ptrans:     0.5000000     0.5000000     0.0000000
 rotmap:
 (   1->   2)  (   2->   7)  (   3->   8)  (   4->   1)  (   5->   6) 
 (   6->   3)  (   7->   4)  (   8->   5) 

 ptrans:     0.5000000     0.0000000     0.5000000
 rotmap:
 (   1->   4)  (   2->   5)  (   3->   6)  (   4->   3)  (   5->   8) 
 (   6->   1)  (   7->   2)  (   8->   7) 

 ptrans:     0.0000000     0.5000000     0.5000000
 rotmap:
 (   1->   6)  (   2->   3)  (   3->   4)  (   4->   5)  (   5->   2) 
 (   6->   7)  (   7->   8)  (   8->   1) 


 irot  :  31
 --------------------------------------------------------------------
 isymop:   1   0   0
           0   1   0
           0   0  -1

 gtrans:     0.7500000     0.7500000    -0.7500000

 ptrans:     0.0000000     0.0000000     0.0000000
 rotmap:
 (   1->   4)  (   2->   5)  (   3->   2)  (   4->   7)  (   5->   8) 
 (   6->   1)  (   7->   6)  (   8->   3) 

 ptrans:     0.5000000     0.5000000     0.0000000
 rotmap:
 (   1->   6)  (   2->   3)  (   3->   8)  (   4->   1)  (   5->   2) 
 (   6->   7)  (   7->   4)  (   8->   5) 

 ptrans:     0.5000000     0.0000000     0.5000000
 rotmap:
 (   1->   8)  (   2->   1)  (   3->   6)  (   4->   3)  (   5->   4) 
 (   6->   5)  (   7->   2)  (   8->   7) 

 ptrans:     0.0000000     0.5000000     0.5000000
 rotmap:
 (   1->   2)  (   2->   7)  (   3->   4)  (   4->   5)  (   5->   6) 
 (   6->   3)  (   7->   8)  (   8->   1) 


 irot  :  32
 --------------------------------------------------------------------
 isymop:   0   0   1
           1   0   0
           0  -1   0

 gtrans:     0.7500000     0.7500000    -0.7500000

 ptrans:     0.0000000     0.0000000     0.0000000
 rotmap:
 (   1->   4)  (   2->   3)  (   3->   8)  (   4->   7)  (   5->   6) 
 (   6->   5)  (   7->   2)  (   8->   1) 

 ptrans:     0.5000000     0.5000000     0.0000000
 rotmap:
 (   1->   6)  (   2->   5)  (   3->   2)  (   4->   1)  (   5->   4) 
 (   6->   3)  (   7->   8)  (   8->   7) 

 ptrans:     0.5000000     0.0000000     0.5000000
 rotmap:
 (   1->   8)  (   2->   7)  (   3->   4)  (   4->   3)  (   5->   2) 
 (   6->   1)  (   7->   6)  (   8->   5) 

 ptrans:     0.0000000     0.5000000     0.5000000
 rotmap:
 (   1->   2)  (   2->   1)  (   3->   6)  (   4->   5)  (   5->   8) 
 (   6->   7)  (   7->   4)  (   8->   3) 


 irot  :  33
 --------------------------------------------------------------------
 isymop:   0   1   0
           0   0   1
          -1   0   0

 gtrans:     0.7500000     0.7500000    -0.7500000

 ptrans:     0.0000000     0.0000000     0.0000000
 rotmap:
 (   1->   4)  (   2->   1)  (   3->   6)  (   4->   7)  (   5->   2) 
 (   6->   3)  (   7->   8)  (   8->   5) 

 ptrans:     0.5000000     0.5000000     0.0000000
 rotmap:
 (   1->   6)  (   2->   7)  (   3->   4)  (   4->   1)  (   5->   8) 
 (   6->   5)  (   7->   2)  (   8->   3) 

 ptrans:     0.5000000     0.0000000     0.5000000
 rotmap:
 (   1->   8)  (   2->   5)  (   3->   2)  (   4->   3)  (   5->   6) 
 (   6->   7)  (   7->   4)  (   8->   1) 

 ptrans:     0.0000000     0.5000000     0.5000000
 rotmap:
 (   1->   2)  (   2->   3)  (   3->   8)  (   4->   5)  (   5->   4) 
 (   6->   1)  (   7->   6)  (   8->   7) 


 irot  :  34
 --------------------------------------------------------------------
 isymop:   0   1   0
          -1   0   0
           0   0   1

 gtrans:     0.7500000     0.7500000    -0.7500000

 ptrans:     0.0000000     0.0000000     0.0000000
 rotmap:
 (   1->   2)  (   2->   3)  (   3->   6)  (   4->   7)  (   5->   4) 
 (   6->   1)  (   7->   8)  (   8->   5) 

 ptrans:     0.5000000     0.5000000     0.0000000
 rotmap:
 (   1->   8)  (   2->   5)  (   3->   4)  (   4->   1)  (   5->   6) 
 (   6->   7)  (   7->   2)  (   8->   3) 

 ptrans:     0.5000000     0.0000000     0.5000000
 rotmap:
 (   1->   6)  (   2->   7)  (   3->   2)  (   4->   3)  (   5->   8) 
 (   6->   5)  (   7->   4)  (   8->   1) 

 ptrans:     0.0000000     0.5000000     0.5000000
 rotmap:
 (   1->   4)  (   2->   1)  (   3->   8)  (   4->   5)  (   5->   2) 
 (   6->   3)  (   7->   6)  (   8->   7) 


 irot  :  35
 --------------------------------------------------------------------
 isymop:   1   0   0
           0   0  -1
           0   1   0

 gtrans:     0.7500000     0.7500000    -0.7500000

 ptrans:     0.0000000     0.0000000     0.0000000
 rotmap:
 (   1->   2)  (   2->   5)  (   3->   4)  (   4->   7)  (   5->   8) 
 (   6->   3)  (   7->   6)  (   8->   1) 

 ptrans:     0.5000000     0.5000000     0.0000000
 rotmap:
 (   1->   8)  (   2->   3)  (   3->   6)  (   4->   1)  (   5->   2) 
 (   6->   5)  (   7->   4)  (   8->   7) 

 ptrans:     0.5000000     0.0000000     0.5000000
 rotmap:
 (   1->   6)  (   2->   1)  (   3->   8)  (   4->   3)  (   5->   4) 
 (   6->   7)  (   7->   2)  (   8->   5) 

 ptrans:     0.0000000     0.5000000     0.5000000
 rotmap:
 (   1->   4)  (   2->   7)  (   3->   2)  (   4->   5)  (   5->   6) 
 (   6->   1)  (   7->   8)  (   8->   3) 


 irot  :  36
 --------------------------------------------------------------------
 isymop:   0   0   1
           0  -1   0
           1   0   0

 gtrans:     0.7500000     0.7500000    -0.7500000

 ptrans:     0.0000000     0.0000000     0.0000000
 rotmap:
 (   1->   2)  (   2->   1)  (   3->   8)  (   4->   7)  (   5->   6) 
 (   6->   5)  (   7->   4)  (   8->   3) 

 ptrans:     0.5000000     0.5000000     0.0000000
 rotmap:
 (   1->   8)  (   2->   7)  (   3->   2)  (   4->   1)  (   5->   4) 
 (   6->   3)  (   7->   6)  (   8->   5) 

 ptrans:     0.5000000     0.0000000     0.5000000
 rotmap:
 (   1->   6)  (   2->   5)  (   3->   4)  (   4->   3)  (   5->   2) 
 (   6->   1)  (   7->   8)  (   8->   7) 

 ptrans:     0.0000000     0.5000000     0.5000000
 rotmap:
 (   1->   4)  (   2->   3)  (   3->   6)  (   4->   5)  (   5->   8) 
 (   6->   7)  (   7->   2)  (   8->   1) 


 irot  :  37
 --------------------------------------------------------------------
 isymop:   0   0  -1
           1   0   0
           0   1   0

 gtrans:     0.7500000     0.7500000    -0.7500000

 ptrans:     0.0000000     0.0000000     0.0000000
 rotmap:
 (   1->   8)  (   2->   3)  (   3->   4)  (   4->   7)  (   5->   2) 
 (   6->   5)  (   7->   6)  (   8->   1) 

 ptrans:     0.5000000     0.5000000     0.0000000
 rotmap:
 (   1->   2)  (   2->   5)  (   3->   6)  (   4->   1)  (   5->   8) 
 (   6->   3)  (   7->   4)  (   8->   7) 

 ptrans:     0.5000000     0.0000000     0.5000000
 rotmap:
 (   1->   4)  (   2->   7)  (   3->   8)  (   4->   3)  (   5->   6) 
 (   6->   1)  (   7->   2)  (   8->   5) 

 ptrans:     0.0000000     0.5000000     0.5000000
 rotmap:
 (   1->   6)  (   2->   1)  (   3->   2)  (   4->   5)  (   5->   4) 
 (   6->   7)  (   7->   8)  (   8->   3) 


 irot  :  38
 --------------------------------------------------------------------
 isymop:   0  -1   0
           0   0   1
           1   0   0

 gtrans:     0.7500000     0.7500000    -0.7500000

 ptrans:     0.0000000     0.0000000     0.0000000
 rotmap:
 (   1->   8)  (   2->   1)  (   3->   2)  (   4->   7)  (   5->   6) 
 (   6->   3)  (   7->   4)  (   8->   5) 

 ptrans:     0.5000000     0.5000000     0.0000000
 rotmap:
 (   1->   2)  (   2->   7)  (   3->   8)  (   4->   1)  (   5->   4) 
 (   6->   5)  (   7->   6)  (   8->   3) 

 ptrans:     0.5000000     0.0000000     0.5000000
 rotmap:
 (   1->   4)  (   2->   5)  (   3->   6)  (   4->   3)  (   5->   2) 
 (   6->   7)  (   7->   8)  (   8->   1) 

 ptrans:     0.0000000     0.5000000     0.5000000
 rotmap:
 (   1->   6)  (   2->   3)  (   3->   4)  (   4->   5)  (   5->   8) 
 (   6->   1)  (   7->   2)  (   8->   7) 


 irot  :  39
 --------------------------------------------------------------------
 isymop:  -1   0   0
           0   1   0
           0   0   1

 gtrans:     0.7500000     0.7500000    -0.7500000

 ptrans:     0.0000000     0.0000000     0.0000000
 rotmap:
 (   1->   8)  (   2->   5)  (   3->   6)  (   4->   7)  (   5->   4) 
 (   6->   1)  (   7->   2)  (   8->   3) 

 ptrans:     0.5000000     0.5000000     0.0000000
 rotmap:
 (   1->   2)  (   2->   3)  (   3->   4)  (   4->   1)  (   5->   6) 
 (   6->   7)  (   7->   8)  (   8->   5) 

 ptrans:     0.5000000     0.0000000     0.5000000
 rotmap:
 (   1->   4)  (   2->   1)  (   3->   2)  (   4->   3)  (   5->   8) 
 (   6->   5)  (   7->   6)  (   8->   7) 

 ptrans:     0.0000000     0.5000000     0.5000000
 rotmap:
 (   1->   6)  (   2->   7)  (   3->   8)  (   4->   5)  (   5->   2) 
 (   6->   3)  (   7->   4)  (   8->   1) 


 irot  :  40
 --------------------------------------------------------------------
 isymop:   0   0   1
           0   1   0
          -1   0   0

 gtrans:     0.7500000     0.7500000    -0.7500000

 ptrans:     0.0000000     0.0000000     0.0000000
 rotmap:
 (   1->   4)  (   2->   1)  (   3->   6)  (   4->   7)  (   5->   8) 
 (   6->   5)  (   7->   2)  (   8->   3) 

 ptrans:     0.5000000     0.5000000     0.0000000
 rotmap:
 (   1->   6)  (   2->   7)  (   3->   4)  (   4->   1)  (   5->   2) 
 (   6->   3)  (   7->   8)  (   8->   5) 

 ptrans:     0.5000000     0.0000000     0.5000000
 rotmap:
 (   1->   8)  (   2->   5)  (   3->   2)  (   4->   3)  (   5->   4) 
 (   6->   1)  (   7->   6)  (   8->   7) 

 ptrans:     0.0000000     0.5000000     0.5000000
 rotmap:
 (   1->   2)  (   2->   3)  (   3->   8)  (   4->   5)  (   5->   6) 
 (   6->   7)  (   7->   4)  (   8->   1) 


 irot  :  41
 --------------------------------------------------------------------
 isymop:   0   1   0
           1   0   0
           0   0  -1

 gtrans:     0.7500000     0.7500000    -0.7500000

 ptrans:     0.0000000     0.0000000     0.0000000
 rotmap:
 (   1->   4)  (   2->   3)  (   3->   8)  (   4->   7)  (   5->   2) 
 (   6->   1)  (   7->   6)  (   8->   5) 

 ptrans:     0.5000000     0.5000000     0.0000000
 rotmap:
 (   1->   6)  (   2->   5)  (   3->   2)  (   4->   1)  (   5->   8) 
 (   6->   7)  (   7->   4)  (   8->   3) 

 ptrans:     0.5000000     0.0000000     0.5000000
 rotmap:
 (   1->   8)  (   2->   7)  (   3->   4)  (   4->   3)  (   5->   6) 
 (   6->   5)  (   7->   2)  (   8->   1) 

 ptrans:     0.0000000     0.5000000     0.5000000
 rotmap:
 (   1->   2)  (   2->   1)  (   3->   6)  (   4->   5)  (   5->   4) 
 (   6->   3)  (   7->   8)  (   8->   7) 


 irot  :  42
 --------------------------------------------------------------------
 isymop:   1   0   0
           0   0   1
           0  -1   0

 gtrans:     0.7500000     0.7500000    -0.7500000

 ptrans:     0.0000000     0.0000000     0.0000000
 rotmap:
 (   1->   4)  (   2->   5)  (   3->   2)  (   4->   7)  (   5->   6) 
 (   6->   3)  (   7->   8)  (   8->   1) 

 ptrans:     0.5000000     0.5000000     0.0000000
 rotmap:
 (   1->   6)  (   2->   3)  (   3->   8)  (   4->   1)  (   5->   4) 
 (   6->   5)  (   7->   2)  (   8->   7) 

 ptrans:     0.5000000     0.0000000     0.5000000
 rotmap:
 (   1->   8)  (   2->   1)  (   3->   6)  (   4->   3)  (   5->   2) 
 (   6->   7)  (   7->   4)  (   8->   5) 

 ptrans:     0.0000000     0.5000000     0.5000000
 rotmap:
 (   1->   2)  (   2->   7)  (   3->   4)  (   4->   5)  (   5->   8) 
 (   6->   1)  (   7->   6)  (   8->   3) 


 irot  :  43
 --------------------------------------------------------------------
 isymop:   0   1   0
           0   0  -1
           1   0   0

 gtrans:     0.7500000     0.7500000    -0.7500000

 ptrans:     0.0000000     0.0000000     0.0000000
 rotmap:
 (   1->   2)  (   2->   1)  (   3->   8)  (   4->   7)  (   5->   4) 
 (   6->   3)  (   7->   6)  (   8->   5) 

 ptrans:     0.5000000     0.5000000     0.0000000
 rotmap:
 (   1->   8)  (   2->   7)  (   3->   2)  (   4->   1)  (   5->   6) 
 (   6->   5)  (   7->   4)  (   8->   3) 

 ptrans:     0.5000000     0.0000000     0.5000000
 rotmap:
 (   1->   6)  (   2->   5)  (   3->   4)  (   4->   3)  (   5->   8) 
 (   6->   7)  (   7->   2)  (   8->   1) 

 ptrans:     0.0000000     0.5000000     0.5000000
 rotmap:
 (   1->   4)  (   2->   3)  (   3->   6)  (   4->   5)  (   5->   2) 
 (   6->   1)  (   7->   8)  (   8->   7) 


 irot  :  44
 --------------------------------------------------------------------
 isymop:   1   0   0
           0  -1   0
           0   0   1

 gtrans:     0.7500000     0.7500000    -0.7500000

 ptrans:     0.0000000     0.0000000     0.0000000
 rotmap:
 (   1->   2)  (   2->   5)  (   3->   4)  (   4->   7)  (   5->   6) 
 (   6->   1)  (   7->   8)  (   8->   3) 

 ptrans:     0.5000000     0.5000000     0.0000000
 rotmap:
 (   1->   8)  (   2->   3)  (   3->   6)  (   4->   1)  (   5->   4) 
 (   6->   7)  (   7->   2)  (   8->   5) 

 ptrans:     0.5000000     0.0000000     0.5000000
 rotmap:
 (   1->   6)  (   2->   1)  (   3->   8)  (   4->   3)  (   5->   2) 
 (   6->   5)  (   7->   4)  (   8->   7) 

 ptrans:     0.0000000     0.5000000     0.5000000
 rotmap:
 (   1->   4)  (   2->   7)  (   3->   2)  (   4->   5)  (   5->   8) 
 (   6->   3)  (   7->   6)  (   8->   1) 


 irot  :  45
 --------------------------------------------------------------------
 isymop:   0   0   1
          -1   0   0
           0   1   0

 gtrans:     0.7500000     0.7500000    -0.7500000

 ptrans:     0.0000000     0.0000000     0.0000000
 rotmap:
 (   1->   2)  (   2->   3)  (   3->   6)  (   4->   7)  (   5->   8) 
 (   6->   5)  (   7->   4)  (   8->   1) 

 ptrans:     0.5000000     0.5000000     0.0000000
 rotmap:
 (   1->   8)  (   2->   5)  (   3->   4)  (   4->   1)  (   5->   2) 
 (   6->   3)  (   7->   6)  (   8->   7) 

 ptrans:     0.5000000     0.0000000     0.5000000
 rotmap:
 (   1->   6)  (   2->   7)  (   3->   2)  (   4->   3)  (   5->   4) 
 (   6->   1)  (   7->   8)  (   8->   5) 

 ptrans:     0.0000000     0.5000000     0.5000000
 rotmap:
 (   1->   4)  (   2->   1)  (   3->   8)  (   4->   5)  (   5->   6) 
 (   6->   7)  (   7->   2)  (   8->   3) 


 irot  :  46
 --------------------------------------------------------------------
 isymop:  -1   0   0
           0   0  -1
           0  -1   0

 gtrans:     0.7500000     0.7500000    -0.7500000

 ptrans:     0.0000000     0.0000000     0.0000000
 rotmap:
 (   1->   6)  (   2->   5)  (   3->   8)  (   4->   7)  (   5->   4) 
 (   6->   3)  (   7->   2)  (   8->   1) 

 ptrans:     0.5000000     0.5000000     0.0000000
 rotmap:
 (   1->   4)  (   2->   3)  (   3->   2)  (   4->   1)  (   5->   6) 
 (   6->   5)  (   7->   8)  (   8->   7) 

 ptrans:     0.5000000     0.0000000     0.5000000
 rotmap:
 (   1->   2)  (   2->   1)  (   3->   4)  (   4->   3)  (   5->   8) 
 (   6->   7)  (   7->   6)  (   8->   5) 

 ptrans:     0.0000000     0.5000000     0.5000000
 rotmap:
 (   1->   8)  (   2->   7)  (   3->   6)  (   4->   5)  (   5->   2) 
 (   6->   1)  (   7->   4)  (   8->   3) 


 irot  :  47
 --------------------------------------------------------------------
 isymop:   0  -1   0
          -1   0   0
           0   0  -1

 gtrans:     0.7500000     0.7500000    -0.7500000

 ptrans:     0.0000000     0.0000000     0.0000000
 rotmap:
 (   1->   6)  (   2->   3)  (   3->   2)  (   4->   7)  (   5->   8) 
 (   6->   1)  (   7->   4)  (   8->   5) 

 ptrans:     0.5000000     0.5000000     0.0000000
 rotmap:
 (   1->   4)  (   2->   5)  (   3->   8)  (   4->   1)  (   5->   2) 
 (   6->   7)  (   7->   6)  (   8->   3) 

 ptrans:     0.5000000     0.0000000     0.5000000
 rotmap:
 (   1->   2)  (   2->   7)  (   3->   6)  (   4->   3)  (   5->   4) 
 (   6->   5)  (   7->   8)  (   8->   1) 

 ptrans:     0.0000000     0.5000000     0.5000000
 rotmap:
 (   1->   8)  (   2->   1)  (   3->   4)  (   4->   5)  (   5->   6) 
 (   6->   3)  (   7->   2)  (   8->   7) 


 irot  :  48
 --------------------------------------------------------------------
 isymop:   0   0  -1
           0  -1   0
          -1   0   0

 gtrans:     0.7500000     0.7500000    -0.7500000

 ptrans:     0.0000000     0.0000000     0.0000000
 rotmap:
 (   1->   6)  (   2->   1)  (   3->   4)  (   4->   7)  (   5->   2) 
 (   6->   5)  (   7->   8)  (   8->   3) 

 ptrans:     0.5000000     0.5000000     0.0000000
 rotmap:
 (   1->   4)  (   2->   7)  (   3->   6)  (   4->   1)  (   5->   8) 
 (   6->   3)  (   7->   2)  (   8->   5) 

 ptrans:     0.5000000     0.0000000     0.5000000
 rotmap:
 (   1->   2)  (   2->   5)  (   3->   8)  (   4->   3)  (   5->   6) 
 (   6->   1)  (   7->   4)  (   8->   7) 

 ptrans:     0.0000000     0.5000000     0.5000000
 rotmap:
 (   1->   8)  (   2->   3)  (   3->   2)  (   4->   5)  (   5->   4) 
 (   6->   7)  (   7->   6)  (   8->   1) 
 
 
 KPOINTS: Automatic kpoint scheme                 

Automatic generation of k-mesh.
Space group operators:
 irot       det(A)        alpha          n_x          n_y          n_z        tau_x        tau_y        tau_z
    1     1.000000     0.000001     1.000000     0.000000     0.000000     0.000000     0.000000    -0.000000
    2     1.000000   120.000000    -0.577350    -0.577350    -0.577350     0.000000     0.000000    -0.000000
    3     1.000000   120.000000     0.577350     0.577350     0.577350     0.000000     0.000000    -0.000000
    4    -1.000000    90.000000     0.000000     0.000000    -1.000000     0.000000     0.000000    -0.000000
    5    -1.000000   180.000000     0.000000     0.707107     0.707107     0.000000     0.000000    -0.000000
    6    -1.000000    90.000000     0.000000     1.000000     0.000000     0.000000     0.000000    -0.000000
    7     1.000000   180.000000     0.000000     0.000000     1.000000     0.000000     0.000000    -0.000000
    8     1.000000   120.000000    -0.577350     0.577350     0.577350     0.000000     0.000000    -0.000000
    9     1.000000   120.000000    -0.577350     0.577350    -0.577350     0.000000     0.000000    -0.000000
   10    -1.000000    90.000000     0.000000     0.000000     1.000000     0.000000     0.000000    -0.000000
   11    -1.000000    90.000000    -1.000000     0.000000     0.000000     0.000000     0.000000    -0.000000
   12    -1.000000   180.000000     0.707107     0.000000     0.707107     0.000000     0.000000    -0.000000
   13     1.000000   120.000000     0.577350    -0.577350     0.577350     0.000000     0.000000    -0.000000
   14     1.000000   120.000000    -0.577350    -0.577350     0.577350     0.000000     0.000000    -0.000000
   15     1.000000   180.000000     1.000000     0.000000     0.000000     0.000000     0.000000    -0.000000
   16    -1.000000    90.000000     0.000000    -1.000000     0.000000     0.000000     0.000000    -0.000000
   17    -1.000000   180.000000     0.707107     0.707107     0.000000     0.000000     0.000000    -0.000000
   18    -1.000000    90.000000     1.000000     0.000000     0.000000     0.000000     0.000000    -0.000000
   19     1.000000   120.000000     0.577350    -0.577350    -0.577350     0.000000     0.000000    -0.000000
   20     1.000000   180.000000     0.000000     1.000000     0.000000     0.000000     0.000000    -0.000000
   21     1.000000   120.000000     0.577350     0.577350    -0.577350     0.000000     0.000000    -0.000000
   22    -1.000000   180.000000     0.000000    -0.707107     0.707107     0.000000     0.000000    -0.000000
   23    -1.000000   180.000000     0.707107    -0.707107     0.000000     0.000000     0.000000    -0.000000
   24    -1.000000   180.000000     0.707107     0.000000    -0.707107     0.000000     0.000000    -0.000000
   25    -1.000000     0.000001     1.000000     0.000000     0.000000     0.750000     0.750000    -0.750000
   26    -1.000000   120.000000    -0.577350    -0.577350    -0.577350     0.750000     0.750000    -0.750000
   27    -1.000000   120.000000     0.577350     0.577350     0.577350     0.750000     0.750000    -0.750000
   28     1.000000    90.000000     0.000000     0.000000    -1.000000     0.750000     0.750000    -0.750000
   29     1.000000   180.000000     0.000000     0.707107     0.707107     0.750000     0.750000    -0.750000
   30     1.000000    90.000000     0.000000     1.000000     0.000000     0.750000     0.750000    -0.750000
   31    -1.000000   180.000000     0.000000     0.000000     1.000000     0.750000     0.750000    -0.750000
   32    -1.000000   120.000000    -0.577350     0.577350     0.577350     0.750000     0.750000    -0.750000
   33    -1.000000   120.000000    -0.577350     0.577350    -0.577350     0.750000     0.750000    -0.750000
   34     1.000000    90.000000     0.000000     0.000000     1.000000     0.750000     0.750000    -0.750000
   35     1.000000    90.000000    -1.000000     0.000000     0.000000     0.750000     0.750000    -0.750000
   36     1.000000   180.000000     0.707107     0.000000     0.707107     0.750000     0.750000    -0.750000
   37    -1.000000   120.000000     0.577350    -0.577350     0.577350     0.750000     0.750000    -0.750000
   38    -1.000000   120.000000    -0.577350    -0.577350     0.577350     0.750000     0.750000    -0.750000
   39    -1.000000   180.000000     1.000000     0.000000     0.000000     0.750000     0.750000    -0.750000
   40     1.000000    90.000000     0.000000    -1.000000     0.000000     0.750000     0.750000    -0.750000
   41     1.000000   180.000000     0.707107     0.707107     0.000000     0.750000     0.750000    -0.750000
   42     1.000000    90.000000     1.000000     0.000000     0.000000     0.750000     0.750000    -0.750000
   43    -1.000000   120.000000     0.577350    -0.577350    -0.577350     0.750000     0.750000    -0.750000
   44    -1.000000   180.000000     0.000000     1.000000     0.000000     0.750000     0.750000    -0.750000
   45    -1.000000   120.000000     0.577350     0.577350    -0.577350     0.750000     0.750000    -0.750000
   46     1.000000   180.000000     0.000000    -0.707107     0.707107     0.750000     0.750000    -0.750000
   47     1.000000   180.000000     0.707107    -0.707107     0.000000     0.750000     0.750000    -0.750000
   48     1.000000   180.000000     0.707107     0.000000    -0.707107     0.750000     0.750000    -0.750000
 
 Subroutine IBZKPT returns following result:
 ===========================================
 
 Found     56 irreducible k-points:
 
 Following reciprocal coordinates:
            Coordinates               Weight
  0.041667  0.041667  0.041667      8.000000
  0.125000  0.041667  0.041667     24.000000
  0.208333  0.041667  0.041667     24.000000
  0.291667  0.041667  0.041667     24.000000
  0.375000  0.041667  0.041667     24.000000
  0.458333  0.041667  0.041667     24.000000
  0.125000  0.125000  0.041667     24.000000
  0.208333  0.125000  0.041667     48.000000
  0.291667  0.125000  0.041667     48.000000
  0.375000  0.125000  0.041667     48.000000
  0.458333  0.125000  0.041667     48.000000
  0.208333  0.208333  0.041667     24.000000
  0.291667  0.208333  0.041667     48.000000
  0.375000  0.208333  0.041667     48.000000
  0.458333  0.208333  0.041667     48.000000
  0.291667  0.291667  0.041667     24.000000
  0.375000  0.291667  0.041667     48.000000
  0.458333  0.291667  0.041667     48.000000
  0.375000  0.375000  0.041667     24.000000
  0.458333  0.375000  0.041667     48.000000
  0.458333  0.458333  0.041667     24.000000
  0.125000  0.125000  0.125000      8.000000
  0.208333  0.125000  0.125000     24.000000
  0.291667  0.125000  0.125000     24.000000
  0.375000  0.125000  0.125000     24.000000
  0.458333  0.125000  0.125000     24.000000
  0.208333  0.208333  0.125000     24.000000
  0.291667  0.208333  0.125000     48.000000
  0.375000  0.208333  0.125000     48.000000
  0.458333  0.208333  0.125000     48.000000
  0.291667  0.291667  0.125000     24.000000
  0.375000  0.291667  0.125000     48.000000
  0.458333  0.291667  0.125000     48.000000
  0.375000  0.375000  0.125000     24.000000
  0.458333  0.375000  0.125000     48.000000
  0.458333  0.458333  0.125000     24.000000
  0.208333  0.208333  0.208333      8.000000
  0.291667  0.208333  0.208333     24.000000
  0.375000  0.208333  0.208333     24.000000
  0.458333  0.208333  0.208333     24.000000
  0.291667  0.291667  0.208333     24.000000
  0.375000  0.291667  0.208333     48.000000
  0.458333  0.291667  0.208333     48.000000
  0.375000  0.375000  0.208333     24.000000
  0.458333  0.375000  0.208333     48.000000
  0.458333  0.458333  0.208333     24.000000
  0.291667  0.291667  0.291667      8.000000
  0.375000  0.291667  0.291667     24.000000
  0.458333  0.291667  0.291667     24.000000
  0.375000  0.375000  0.291667     24.000000
  0.458333  0.375000  0.291667     48.000000
  0.458333  0.458333  0.291667     24.000000
  0.375000  0.375000  0.375000      8.000000
  0.458333  0.375000  0.375000     24.000000
  0.458333  0.458333  0.375000     24.000000
  0.458333  0.458333  0.458333      8.000000
 
 Following cartesian coordinates:
            Coordinates               Weight
  0.007230  0.007230  0.007230      8.000000
  0.021691  0.007230  0.007230     24.000000
  0.036151  0.007230  0.007230     24.000000
  0.050611  0.007230  0.007230     24.000000
  0.065072  0.007230  0.007230     24.000000
  0.079532  0.007230  0.007230     24.000000
  0.021691  0.021691  0.007230     24.000000
  0.036151  0.021691  0.007230     48.000000
  0.050611  0.021691  0.007230     48.000000
  0.065072  0.021691  0.007230     48.000000
  0.079532  0.021691  0.007230     48.000000
  0.036151  0.036151  0.007230     24.000000
  0.050611  0.036151  0.007230     48.000000
  0.065072  0.036151  0.007230     48.000000
  0.079532  0.036151  0.007230     48.000000
  0.050611  0.050611  0.007230     24.000000
  0.065072  0.050611  0.007230     48.000000
  0.079532  0.050611  0.007230     48.000000
  0.065072  0.065072  0.007230     24.000000
  0.079532  0.065072  0.007230     48.000000
  0.079532  0.079532  0.007230     24.000000
  0.021691  0.021691  0.021691      8.000000
  0.036151  0.021691  0.021691     24.000000
  0.050611  0.021691  0.021691     24.000000
  0.065072  0.021691  0.021691     24.000000
  0.079532  0.021691  0.021691     24.000000
  0.036151  0.036151  0.021691     24.000000
  0.050611  0.036151  0.021691     48.000000
  0.065072  0.036151  0.021691     48.000000
  0.079532  0.036151  0.021691     48.000000
  0.050611  0.050611  0.021691     24.000000
  0.065072  0.050611  0.021691     48.000000
  0.079532  0.050611  0.021691     48.000000
  0.065072  0.065072  0.021691     24.000000
  0.079532  0.065072  0.021691     48.000000
  0.079532  0.079532  0.021691     24.000000
  0.036151  0.036151  0.036151      8.000000
  0.050611  0.036151  0.036151     24.000000
  0.065072  0.036151  0.036151     24.000000
  0.079532  0.036151  0.036151     24.000000
  0.050611  0.050611  0.036151     24.000000
  0.065072  0.050611  0.036151     48.000000
  0.079532  0.050611  0.036151     48.000000
  0.065072  0.065072  0.036151     24.000000
  0.079532  0.065072  0.036151     48.000000
  0.079532  0.079532  0.036151     24.000000
  0.050611  0.050611  0.050611      8.000000
  0.065072  0.050611  0.050611     24.000000
  0.079532  0.050611  0.050611     24.000000
  0.065072  0.065072  0.050611     24.000000
  0.079532  0.065072  0.050611     48.000000
  0.079532  0.079532  0.050611     24.000000
  0.065072  0.065072  0.065072      8.000000
  0.079532  0.065072  0.065072     24.000000
  0.079532  0.079532  0.065072     24.000000
  0.079532  0.079532  0.079532      8.000000
 


--------------------------------------------------------------------------------------------------------




 Dimension of arrays:
   k-points           NKPTS =     56   k-points in BZ     NKDIM =     56   number of bands    NBANDS=     20
   number of dos      NEDOS =    301   number of ions     NIONS =      8
   non local maximal  LDIM  =      5   non local SUM 2l+1 LMDIM =     13
   total plane-waves  NPLWV =   4096
   max r-space proj   IRMAX =      1   max aug-charges    IRDMAX=   1737
   dimension x,y,z NGX =    16 NGY =   16 NGZ =   16
   dimension x,y,z NGXF=    32 NGYF=   32 NGZF=   32
   support grid    NGXF=    32 NGYF=   32 NGZF=   32
   ions per type =               8
 NGX,Y,Z   is equivalent  to a cutoff of   4.62,  4.62,  4.62 a.u.
 NGXF,Y,Z  is equivalent  to a cutoff of   9.23,  9.23,  9.23 a.u.


 I would recommend the setting:
   dimension x,y,z NGX =    16 NGY =   16 NGZ =   16
 SYSTEM =  unknown system                          
 POSCAR =  MP POSCAR: Ge8                          

 Startparameter for this run:
   NWRITE =      2    write-flag & timer
   PREC   = normal    normal or accurate (medium, high low for compatibility)
   ISTART =      0    job   : 0-new  1-cont  2-samecut
   ICHARG =      2    charge: 1-file 2-atom 10-const
   ISPIN  =      1    spin polarized calculation?
   LNONCOLLINEAR =      F non collinear calculations
   LSORBIT =      F    spin-orbit coupling
   INIWAV =      1    electr: 0-lowe 1-rand  2-diag
   LASPH  =      F    aspherical Exc in radial PAW
   METAGGA=      F    non-selfconsistent MetaGGA calc.

 Electronic Relaxation 1
   ENCUT  =  134.7 eV   9.90 Ry    3.15 a.u.   5.45  5.45  5.45*2*pi/ulx,y,z
   ENINI  =  134.7     initial cutoff
   ENAUG  =  320.3 eV  augmentation charge cutoff
   NELM   =     60;   NELMIN=  2; NELMDL= -5     # of ELM steps 
   EDIFF  = 0.1E-03   stopping-criterion for ELM
   LREAL  =      F    real-space projection
   NLSPLINE    = F    spline interpolate recip. space projectors
   LCOMPAT=      F    compatible to vasp.4.4
   GGA_COMPAT  = T    GGA compatible to vasp.4.4-vasp.4.6
   LMAXPAW     = -100 max onsite density
   LMAXMIX     =    2 max onsite mixed and CHGCAR
   VOSKOWN=      0    Vosko Wilk Nusair interpolation
   ROPT   =    0.00000
 Ionic relaxation
   EDIFFG = 0.1E-02   stopping-criterion for IOM
   NSW    =      0    number of steps for IOM
   NBLOCK =      1;   KBLOCK =      1    inner block; outer block 
   IBRION =     -1    ionic relax: 0-MD 1-quasi-New 2-CG
   NFREE  =      0    steps in history (QN), initial steepest desc. (CG)
   ISIF   =      2    stress and relaxation
   IWAVPR =     10    prediction:  0-non 1-charg 2-wave 3-comb
   ISYM   =      1    0-nonsym 1-usesym 2-fastsym
   LCORR  =      T    Harris-Foulkes like correction to forces

   POTIM  = 0.5000    time-step for ionic-motion
   TEIN   =    0.0    initial temperature
   TEBEG  =    0.0;   TEEND  =   0.0 temperature during run
   SMASS  =  -3.00    Nose mass-parameter (am)
   estimated Nose-frequenzy (Omega)   =  0.10E-29 period in steps =****** mass=  -0.759E-27a.u.
   SCALEE = 1.0000    scale energy and forces
   NPACO  =    256;   APACO  = 16.0  distance and # of slots for P.C.
   PSTRESS=    0.0 pullay stress

  Mass of Ions in am
   POMASS =  69.72
  Ionic Valenz
   ZVAL   =   3.00
  Atomic Wigner-Seitz radii
   RWIGS  =  -1.00
  virtual crystal weights 
   VCA    =   1.00
   NELECT =      24.0000    total number of electrons
   NUPDOWN=      -1.0000    fix difference up-down

 DOS related values:
   EMIN   =  10.00;   EMAX   =-10.00  energy-range for DOS
   EFERMI =   0.00
   ISMEAR =     0;   SIGMA  =   0.20  broadening in eV -4-tet -1-fermi 0-gaus

 Electronic relaxation 2 (details)
   IALGO  =     68    algorithm
   LDIAG  =      T    sub-space diagonalisation (order eigenvalues)
   LSUBROT=      T    optimize rotation matrix (better conditioning)
   TURBO    =      0    0=normal 1=particle mesh
   IRESTART =      0    0=no restart 2=restart with 2 vectors
   NREBOOT  =      0    no. of reboots
   NMIN     =      0    reboot dimension
   EREF     =   0.00    reference energy to select bands
   IMIX   =      4    mixing-type and parameters
     AMIX     =   0.40;   BMIX     =  1.00
     AMIX_MAG =   1.60;   BMIX_MAG =  1.00
     AMIN     =   0.10
     WC   =   100.;   INIMIX=   1;  MIXPRE=   1;  MAXMIX= -45

 Intra band minimization:
   WEIMIN = 0.0000     energy-eigenvalue tresh-hold
   EBREAK =  0.13E-05  absolut break condition
   DEPER  =   0.30     relativ break condition  

   TIME   =   0.40     timestep for ELM

  volume/ion in A,a.u.               =      23.92       161.44
  Fermi-wavevector in a.u.,A,eV,Ry     =   0.819421  1.548481  9.135637  0.671450
  Thomas-Fermi vector in A             =   1.930222
 
 Write flags
   LWAVE  =      F    write WAVECAR
   LCHARG =      F    write CHGCAR
   LVTOT  =      F    write LOCPOT, total local potential
   LVHAR  =      F    write LOCPOT, Hartree potential only
   LELF   =      F    write electronic localiz. function (ELF)
   LORBIT =      0    0 simple, 1 ext, 2 COOP (PROOUT)


 Dipole corrections
   LMONO  =      F    monopole corrections only (constant potential shift)
   LDIPOL =      F    correct potential (dipole corrections)
   IDIPOL =      0    1-x, 2-y, 3-z, 4-all directions 
   EPSILON=  1.0000000 bulk dielectric constant

 Exchange correlation treatment:
   GGA     =    --    GGA type
   LEXCH   =     8    internal setting for exchange type
   VOSKOWN=      0    Vosko Wilk Nusair interpolation
   LHFCALC =     F    Hartree Fock is set to
   LHFONE  =     F    Hartree Fock one center treatment
   AEXX    =    0.0000 exact exchange contribution

 Linear response parameters
   LEPSILON=     F    determine dielectric tensor
   LRPA    =     F    only Hartree local field effects (RPA)
   LNABLA  =     F    use nabla operator in PAW spheres
   LVEL    =     F    velocity operator in full k-point grid
   LINTERFAST=   F  fast interpolation
   KINTER  =     0    interpolate to denser k-point grid
   CSHIFT  =0.1000    complex shift for real part using Kramers Kronig
   OMEGAMAX=  -1.0    maximum frequency
   DEG_THRESHOLD= 0.2000000E-02 threshold for treating states as degnerate
   RTIME   =    0.100 relaxation time in fs

 Orbital magnetization related:
   ORBITALMAG=     F  switch on orbital magnetization
   LCHIMAG   =     F  perturbation theory with respect to B field
   DQ        =  0.001000  dq finite difference perturbation B field



--------------------------------------------------------------------------------------------------------


 Static calculation
 charge density and potential will be updated during run
 non-spin polarized calculation
 RMM-DIIS sequential band-by-band and
  variant of blocked Davidson during initial phase
 perform sub-space diagonalisation
    before iterative eigenvector-optimisation
 modified Broyden-mixing scheme, WC =      100.0
 initial mixing is a Kerker type mixing with AMIX =  0.4000 and BMIX =      1.0000
 Hartree-type preconditioning will be used
 using additional bands            8
 reciprocal scheme for non local part
 use partial core corrections
 calculate Harris-corrections to forces 
   (improved forces if not selfconsistent)
 use gradient corrections 
 use of overlap-Matrix (Vanderbilt PP)
 Gauss-broadening in eV      SIGMA  =   0.20


--------------------------------------------------------------------------------------------------------


  energy-cutoff  :      134.68
  volume of cell :      191.39
      direct lattice vectors                 reciprocal lattice vectors
     5.762863000  0.000000000  0.000000000     0.173524861  0.000000000  0.000000000
     0.000000000  5.762863000  0.000000000     0.000000000  0.173524861  0.000000000
     0.000000000  0.000000000  5.762863000     0.000000000  0.000000000  0.173524861

  length of vectors
     5.762863000  5.762863000  5.762863000     0.173524861  0.173524861  0.173524861


 
 k-points in units of 2pi/SCALE and weight: Automatic kpoint scheme                 
   0.00723020  0.00723020  0.00723020       0.005
   0.02169061  0.00723020  0.00723020       0.014
   0.03615101  0.00723020  0.00723020       0.014
   0.05061142  0.00723020  0.00723020       0.014
   0.06507182  0.00723020  0.00723020       0.014
   0.07953223  0.00723020  0.00723020       0.014
   0.02169061  0.02169061  0.00723020       0.014
   0.03615101  0.02169061  0.00723020       0.028
   0.05061142  0.02169061  0.00723020       0.028
   0.06507182  0.02169061  0.00723020       0.028
   0.07953223  0.02169061  0.00723020       0.028
   0.03615101  0.03615101  0.00723020       0.014
   0.05061142  0.03615101  0.00723020       0.028
   0.06507182  0.03615101  0.00723020       0.028
   0.07953223  0.03615101  0.00723020       0.028
   0.05061142  0.05061142  0.00723020       0.014
   0.06507182  0.05061142  0.00723020       0.028
   0.07953223  0.05061142  0.00723020       0.028
   0.06507182  0.06507182  0.00723020       0.014
   0.07953223  0.06507182  0.00723020       0.028
   0.07953223  0.07953223  0.00723020       0.014
   0.02169061  0.02169061  0.02169061       0.005
   0.03615101  0.02169061  0.02169061       0.014
   0.05061142  0.02169061  0.02169061       0.014
   0.06507182  0.02169061  0.02169061       0.014
   0.07953223  0.02169061  0.02169061       0.014
   0.03615101  0.03615101  0.02169061       0.014
   0.05061142  0.03615101  0.02169061       0.028
   0.06507182  0.03615101  0.02169061       0.028
   0.07953223  0.03615101  0.02169061       0.028
   0.05061142  0.05061142  0.02169061       0.014
   0.06507182  0.05061142  0.02169061       0.028
   0.07953223  0.05061142  0.02169061       0.028
   0.06507182  0.06507182  0.02169061       0.014
   0.07953223  0.06507182  0.02169061       0.028
   0.07953223  0.07953223  0.02169061       0.014
   0.03615101  0.03615101  0.03615101       0.005
   0.05061142  0.03615101  0.03615101       0.014
   0.06507182  0.03615101  0.03615101       0.014
   0.07953223  0.03615101  0.03615101       0.014
   0.05061142  0.05061142  0.03615101       0.014
   0.06507182  0.05061142  0.03615101       0.028
   0.07953223  0.05061142  0.03615101       0.028
   0.06507182  0.06507182  0.03615101       0.014
   0.07953223  0.06507182  0.03615101       0.028
   0.07953223  0.07953223  0.03615101       0.014
   0.05061142  0.05061142  0.05061142       0.005
   0.06507182  0.05061142  0.05061142       0.014
   0.07953223  0.05061142  0.05061142       0.014
   0.06507182  0.06507182  0.05061142       0.014
   0.07953223  0.06507182  0.05061142       0.028
   0.07953223  0.07953223  0.05061142       0.014
   0.06507182  0.06507182  0.06507182       0.005
   0.07953223  0.06507182  0.06507182       0.014
   0.07953223  0.07953223  0.06507182       0.014
   0.07953223  0.07953223  0.07953223       0.005
 
 k-points in reciprocal lattice and weights: Automatic kpoint scheme                 
   0.04166667  0.04166667  0.04166667       0.005
   0.12500000  0.04166667  0.04166667       0.014
   0.20833333  0.04166667  0.04166667       0.014
   0.29166667  0.04166667  0.04166667       0.014
   0.37500000  0.04166667  0.04166667       0.014
   0.45833333  0.04166667  0.04166667       0.014
   0.12500000  0.12500000  0.04166667       0.014
   0.20833333  0.12500000  0.04166667       0.028
   0.29166667  0.12500000  0.04166667       0.028
   0.37500000  0.12500000  0.04166667       0.028
   0.45833333  0.12500000  0.04166667       0.028
   0.20833333  0.20833333  0.04166667       0.014
   0.29166667  0.20833333  0.04166667       0.028
   0.37500000  0.20833333  0.04166667       0.028
   0.45833333  0.20833333  0.04166667       0.028
   0.29166667  0.29166667  0.04166667       0.014
   0.37500000  0.29166667  0.04166667       0.028
   0.45833333  0.29166667  0.04166667       0.028
   0.37500000  0.37500000  0.04166667       0.014
   0.45833333  0.37500000  0.04166667       0.028
   0.45833333  0.45833333  0.04166667       0.014
   0.12500000  0.12500000  0.12500000       0.005
   0.20833333  0.12500000  0.12500000       0.014
   0.29166667  0.12500000  0.12500000       0.014
   0.37500000  0.12500000  0.12500000       0.014
   0.45833333  0.12500000  0.12500000       0.014
   0.20833333  0.20833333  0.12500000       0.014
   0.29166667  0.20833333  0.12500000       0.028
   0.37500000  0.20833333  0.12500000       0.028
   0.45833333  0.20833333  0.12500000       0.028
   0.29166667  0.29166667  0.12500000       0.014
   0.37500000  0.29166667  0.12500000       0.028
   0.45833333  0.29166667  0.12500000       0.028
   0.37500000  0.37500000  0.12500000       0.014
   0.45833333  0.37500000  0.12500000       0.028
   0.45833333  0.45833333  0.12500000       0.014
   0.20833333  0.20833333  0.20833333       0.005
   0.29166667  0.20833333  0.20833333       0.014
   0.37500000  0.20833333  0.20833333       0.014
   0.45833333  0.20833333  0.20833333       0.014
   0.29166667  0.29166667  0.20833333       0.014
   0.37500000  0.29166667  0.20833333       0.028
   0.45833333  0.29166667  0.20833333       0.028
   0.37500000  0.37500000  0.20833333       0.014
   0.45833333  0.37500000  0.20833333       0.028
   0.45833333  0.45833333  0.20833333       0.014
   0.29166667  0.29166667  0.29166667       0.005
   0.37500000  0.29166667  0.29166667       0.014
   0.45833333  0.29166667  0.29166667       0.014
   0.37500000  0.37500000  0.29166667       0.014
   0.45833333  0.37500000  0.29166667       0.028
   0.45833333  0.45833333  0.29166667       0.014
   0.37500000  0.37500000  0.37500000       0.005
   0.45833333  0.37500000  0.37500000       0.014
   0.45833333  0.45833333  0.37500000       0.014
   0.45833333  0.45833333  0.45833333       0.005
 
 position of ions in fractional coordinates (direct lattice) 
   0.75000000  0.75000000  0.75000000
   0.50000000  0.00000000  0.00000000
   0.75000000  0.25000000  0.25000000
   0.50000000  0.50000000  0.50000000
   0.25000000  0.75000000  0.25000000
   0.00000000  0.00000000  0.50000000
   0.25000000  0.25000000  0.75000000
   0.00000000  0.50000000  0.00000000
 
 position of ions in cartesian coordinates  (Angst):
   4.32214725  4.32214725  4.32214725
   2.88143150  0.00000000  0.00000000
   4.32214725  1.44071575  1.44071575
   2.88143150  2.88143150  2.88143150
   1.44071575  4.32214725  1.44071575
   0.00000000  0.00000000  2.88143150
   1.44071575  1.44071575  4.32214725
   0.00000000  2.88143150  0.00000000
 


--------------------------------------------------------------------------------------------------------


 k-point  1 :   0.0417 0.0417 0.0417  plane waves:     703
 k-point  2 :   0.1250 0.0417 0.0417  plane waves:     691
 k-point  3 :   0.2083 0.0417 0.0417  plane waves:     683
 k-point  4 :   0.2917 0.0417 0.0417  plane waves:     679
 k-point  5 :   0.3750 0.0417 0.0417  plane waves:     682
 k-point  6 :   0.4583 0.0417 0.0417  plane waves:     677
 k-point  7 :   0.1250 0.1250 0.0417  plane waves:     689
 k-point  8 :   0.2083 0.1250 0.0417  plane waves:     689
 k-point  9 :   0.2917 0.1250 0.0417  plane waves:     682
 k-point 10 :   0.3750 0.1250 0.0417  plane waves:     677
 k-point 11 :   0.4583 0.1250 0.0417  plane waves:     676
 k-point 12 :   0.2083 0.2083 0.0417  plane waves:     688
 k-point 13 :   0.2917 0.2083 0.0417  plane waves:     685
 k-point 14 :   0.3750 0.2083 0.0417  plane waves:     678
 k-point 15 :   0.4583 0.2083 0.0417  plane waves:     680
 k-point 16 :   0.2917 0.2917 0.0417  plane waves:     682
 k-point 17 :   0.3750 0.2917 0.0417  plane waves:     679
 k-point 18 :   0.4583 0.2917 0.0417  plane waves:     684
 k-point 19 :   0.3750 0.3750 0.0417  plane waves:     677
 k-point 20 :   0.4583 0.3750 0.0417  plane waves:     679
 k-point 21 :   0.4583 0.4583 0.0417  plane waves:     673
 k-point 22 :   0.1250 0.1250 0.1250  plane waves:     685
 k-point 23 :   0.2083 0.1250 0.1250  plane waves:     684
 k-point 24 :   0.2917 0.1250 0.1250  plane waves:     680
 k-point 25 :   0.3750 0.1250 0.1250  plane waves:     682
 k-point 26 :   0.4583 0.1250 0.1250  plane waves:     676
 k-point 27 :   0.2083 0.2083 0.1250  plane waves:     688
 k-point 28 :   0.2917 0.2083 0.1250  plane waves:     685
 k-point 29 :   0.3750 0.2083 0.1250  plane waves:     680
 k-point 30 :   0.4583 0.2083 0.1250  plane waves:     679
 k-point 31 :   0.2917 0.2917 0.1250  plane waves:     690
 k-point 32 :   0.3750 0.2917 0.1250  plane waves:     678
 k-point 33 :   0.4583 0.2917 0.1250  plane waves:     680
 k-point 34 :   0.3750 0.3750 0.1250  plane waves:     677
 k-point 35 :   0.4583 0.3750 0.1250  plane waves:     676
 k-point 36 :   0.4583 0.4583 0.1250  plane waves:     671
 k-point 37 :   0.2083 0.2083 0.2083  plane waves:     690
 k-point 38 :   0.2917 0.2083 0.2083  plane waves:     685
 k-point 39 :   0.3750 0.2083 0.2083  plane waves:     680
 k-point 40 :   0.4583 0.2083 0.2083  plane waves:     673
 k-point 41 :   0.2917 0.2917 0.2083  plane waves:     680
 k-point 42 :   0.3750 0.2917 0.2083  plane waves:     677
 k-point 43 :   0.4583 0.2917 0.2083  plane waves:     673
 k-point 44 :   0.3750 0.3750 0.2083  plane waves:     680
 k-point 45 :   0.4583 0.3750 0.2083  plane waves:     677
 k-point 46 :   0.4583 0.4583 0.2083  plane waves:     673
 k-point 47 :   0.2917 0.2917 0.2917  plane waves:     672
 k-point 48 :   0.3750 0.2917 0.2917  plane waves:     677
 k-point 49 :   0.4583 0.2917 0.2917  plane waves:     671
 k-point 50 :   0.3750 0.3750 0.2917  plane waves:     674
 k-point 51 :   0.4583 0.3750 0.2917  plane waves:     671
[...]

 k-point  43 :       0.4583    0.2917    0.2083
  band No.  band energies     occupation 
      1      -7.5000      2.00000
      2      -7.1832      2.00000
      3      -6.1796      2.00000
      4      -6.0765      2.00000
      5      -3.8038      2.00000
      6      -3.6893      2.00000
      7      -2.5015      2.00000
      8      -2.0893      2.00000
      9      -0.5133      2.00000
     10      -0.3997      2.00000
     11       0.8170      0.66130
     12       1.0479      0.03832
     13       1.1059      0.01310
     14       1.3258      0.00005
     15       1.6147      0.00000
     16       2.0487      0.00000
     17       5.1249      0.00000
     18       5.1759      0.00000
     19       5.3600      0.00000
     20       5.8674      0.00000

 k-point  44 :       0.3750    0.3750    0.2083
  band No.  band energies     occupation 
      1      -7.5582      2.00000
      2      -6.6627      2.00000
      3      -6.6627      2.00000
      4      -6.1347      2.00000
      5      -3.8100      2.00000
      6      -3.2108      2.00000
      7      -3.2108      2.00000
      8      -2.0990      2.00000
      9      -0.4571      2.00000
     10       0.1424      1.99999
     11       0.1424      1.99999
     12       1.3796      0.00001
     13       1.3796      0.00001
     14       1.3968      0.00001
     15       1.4138      0.00000
     16       2.5539      0.00000
     17       4.7865      0.00000
     18       4.8809      0.00000
     19       5.3758      0.00000
     20       5.3758      0.00000

 k-point  45 :       0.4583    0.3750    0.2083
  band No.  band energies     occupation 
      1      -7.2996      2.00000
      2      -6.9987      2.00000
      3      -6.4815      2.00000
      4      -6.2977      2.00000
      5      -3.6980      2.00000
      6      -3.4911      2.00000
      7      -2.8862      2.00000
      8      -2.5155      2.00000
      9      -0.2560      2.00000
     10      -0.0456      2.00000
     11       0.5824      1.77770
     12       0.9976      0.08628
     13       1.4834      0.00000
     14       1.5206      0.00000
     15       1.8233      0.00000
     16       2.2671      0.00000
     17       5.1084      0.00000
     18       5.1381      0.00000
     19       5.4039      0.00000
     20       5.6070      0.00000

 k-point  46 :       0.4583    0.4583    0.2083
  band No.  band energies     occupation 
      1      -7.0573      2.00000
      2      -6.7805      2.00000
      3      -6.7805      2.00000
      4      -6.5407      2.00000
      5      -3.5001      2.00000
      6      -3.2244      2.00000
      7      -3.2244      2.00000
      8      -2.8970      2.00000
      9       0.0180      2.00000
     10       0.3030      1.99861
     11       0.3030      1.99861
     12       0.6510      1.53768
     13       1.8226      0.00000
     14       1.9194      0.00000
     15       1.9194      0.00000
     16       2.2224      0.00000
     17       5.0863      0.00000
     18       5.1304      0.00000
     19       5.2945      0.00000
     20       5.2945      0.00000

 k-point  47 :       0.2917    0.2917    0.2917
  band No.  band energies     occupation 
      1      -7.8262      2.00000
      2      -6.3564      2.00000
      3      -6.3564      2.00000
      4      -6.3564      2.00000
      5      -3.5038      2.00000
      6      -3.5038      2.00000
      7      -3.5038      2.00000
      8      -1.6551      2.00000
      9      -0.1621      2.00000
     10      -0.1621      2.00000
     11      -0.1621      2.00000
     12       1.2030      0.00153
     13       1.2030      0.00153
     14       1.2030      0.00153
     15       2.4992      0.00000
     16       2.4992      0.00000
     17       4.3115      0.00000
     18       4.6408      0.00000
     19       4.6408      0.00000
     20       4.6408      0.00000

 k-point  48 :       0.3750    0.2917    0.2917
  band No.  band energies     occupation 
      1      -7.6145      2.00000
      2      -6.7157      2.00000
      3      -6.2875      2.00000
      4      -6.2875      2.00000
      5      -3.7173      2.00000
      6      -3.7173      2.00000
      7      -3.2302      2.00000
      8      -2.1186      2.00000
      9      -0.0648      2.00000
     10      -0.0648      2.00000
     11       0.4627      1.96125
     12       1.3028      0.00011
     13       1.3028      0.00011
     14       1.4045      0.00000
     15       2.2085      0.00000
     16       2.3050      0.00000
     17       4.4782      0.00000
     18       4.8663      0.00000
     19       4.9353      0.00000
     20       4.9353      0.00000

 k-point  49 :       0.4583    0.2917    0.2917
  band No.  band energies     occupation 
      1      -7.3550      2.00000
      2      -7.0528      2.00000
      3      -6.2440      2.00000
      4      -6.2440      2.00000
      5      -3.8375      2.00000
      6      -3.8375      2.00000
      7      -2.9085      2.00000
      8      -2.5382      2.00000
      9      -0.0029      2.00000
     10      -0.0029      2.00000
     11       1.1221      0.00944
     12       1.3245      0.00006
     13       1.3245      0.00006
     14       1.6458      0.00000
     15       1.7664      0.00000
     16       1.9184      0.00000
     17       4.8649      0.00000
     18       5.0176      0.00000
     19       5.4464      0.00000
     20       5.4464      0.00000

 k-point  50 :       0.3750    0.3750    0.2917
  band No.  band energies     occupation 
      1      -7.4126      2.00000
      2      -6.5894      2.00000
      3      -6.5894      2.00000
      4      -6.3007      2.00000
      5      -3.8565      2.00000
      6      -3.5345      2.00000
      7      -3.5345      2.00000
      8      -2.5586      2.00000
      9       0.1615      1.99997
     10       0.5377      1.87565
     11       0.5377      1.87565
     12       1.5320      0.00000
     13       1.5320      0.00000
     14       1.5389      0.00000
     15       1.9528      0.00000
     16       2.4213      0.00000
     17       4.3841      0.00000
     18       4.9151      0.00000
     19       5.0795      0.00000
     20       5.0795      0.00000

 k-point  51 :       0.4583    0.3750    0.2917
  band No.  band energies     occupation 
      1      -7.1685      2.00000
      2      -6.8899      2.00000
      3      -6.4630      2.00000
      4      -6.3601      2.00000
      5      -3.8721      2.00000
      6      -3.7584      2.00000
      7      -3.2746      2.00000
      8      -2.9467      2.00000
      9       0.3541      1.99541
     10       0.4914      1.93764
     11       1.1107      0.01189
     12       1.5850      0.00000
     13       1.6233      0.00000
     14       1.6439      0.00000
     15       1.8310      0.00000
     16       2.1833      0.00000
     17       4.6726      0.00000
     18       5.0142      0.00000
     19       5.1353      0.00000
     20       5.3251      0.00000

 k-point  52 :       0.4583    0.4583    0.2917
  band No.  band energies     occupation 
      1      -6.9482      2.00000
      2      -6.7066      2.00000
      3      -6.7066      2.00000
      4      -6.5217      2.00000
      5      -3.7793      2.00000
      6      -3.5725      2.00000
      7      -3.5725      2.00000
      8      -3.2965      2.00000
      9       0.6619      1.48966
     10       0.9216      0.23863
     11       0.9216      0.23863
     12       1.2823      0.00019
     13       1.8951      0.00000
     14       1.9629      0.00000
     15       1.9629      0.00000
     16       2.2103      0.00000
     17       4.7187      0.00000
     18       4.9891      0.00000
     19       4.9943      0.00000
     20       4.9943      0.00000

 k-point  53 :       0.3750    0.3750    0.3750
  band No.  band energies     occupation 
      1      -7.2255      2.00000
      2      -6.5190      2.00000
      3      -6.5190      2.00000
      4      -6.5190      2.00000
      5      -3.7853      2.00000
      6      -3.7853      2.00000
      7      -3.7853      2.00000
      8      -2.9734      2.00000
      9       0.8246      0.62236
     10       0.8246      0.62236
     11       0.8246      0.62236
     12       1.6964      0.00000
     13       1.6964      0.00000
     14       1.6964      0.00000
     15       2.2536      0.00000
     16       2.2536      0.00000
     17       4.1063      0.00000
     18       4.9488      0.00000
     19       4.9488      0.00000
     20       4.9488      0.00000

 k-point  54 :       0.4583    0.3750    0.3750
  band No.  band energies     occupation 
      1      -7.0046      2.00000
      2      -6.7626      2.00000
      3      -6.4745      2.00000
      4      -6.4745      2.00000
      5      -3.9230      2.00000
      6      -3.9230      2.00000
      7      -3.6028      2.00000
      8      -3.3265      2.00000
      9       0.9700      0.12847
     10       0.9700      0.12847
     11       1.4803      0.00000
     12       1.8045      0.00000
     13       1.8045      0.00000
     14       1.8765      0.00000
     15       2.0347      0.00000
     16       2.0674      0.00000
     17       4.2990      0.00000
     18       4.7089      0.00000
     19       4.9511      0.00000
     20       4.9512      0.00000

 k-point  55 :       0.4583    0.4583    0.3750
  band No.  band energies     occupation 
      1      -6.8205      2.00000
      2      -6.6355      2.00000
      3      -6.6355      2.00000
      4      -6.5328      2.00000
      5      -3.9508      2.00000
      6      -3.8376      2.00000
      7      -3.8376      2.00000
      8      -3.6312      2.00000
      9       1.3137      0.00008
     10       1.5021      0.00000
     11       1.5021      0.00000
     12       1.8503      0.00000
     13       1.9785      0.00000
     14       2.0064      0.00000
     15       2.0064      0.00000
     16       2.1813      0.00000
     17       4.2520      0.00000
     18       4.5659      0.00000
     19       4.5659      0.00000
     20       4.6602      0.00000

 k-point  56 :       0.4583    0.4583    0.4583
  band No.  band energies     occupation 
      1      -6.6933      2.00000
      2      -6.5907      2.00000
      3      -6.5907      2.00000
      4      -6.5907      2.00000
      5      -3.9822      2.00000
      6      -3.9822      2.00000
      7      -3.9822      2.00000
      8      -3.8693      2.00000
      9       1.8804      0.00000
     10       1.8804      0.00000
     11       1.8804      0.00000
     12       2.0604      0.00000
     13       2.0604      0.00000
     14       2.0604      0.00000
     15       2.1306      0.00000
     16       2.1306      0.00000
     17       4.0043      0.00000
     18       4.2237      0.00000
     19       4.2237      0.00000
     20       4.2237      0.00000


--------------------------------------------------------------------------------------------------------


 soft charge-density along one line, spin component           1
         0         1         2         3         4         5         6         7         8         9
 total charge-density along one line
 
 pseudopotential strength for first ion, spin component:           1
  6.213   0.144  -0.000  -0.000   0.000  -0.000  -0.000   0.000
  0.144  -0.015  -0.000  -0.000   0.000  -0.000  -0.000   0.000
 -0.000  -0.000   1.352  -0.000   0.000  -0.009  -0.000   0.000
 -0.000  -0.000  -0.000   1.352  -0.000  -0.000  -0.009  -0.000
  0.000   0.000   0.000  -0.000   1.352   0.000  -0.000  -0.009
 -0.000  -0.000  -0.009  -0.000   0.000   0.012  -0.000   0.000
 -0.000  -0.000  -0.000  -0.009  -0.000  -0.000   0.012  -0.000
  0.000   0.000   0.000  -0.000  -0.009   0.000  -0.000   0.012
  0.000   0.000   0.000  -0.006   0.000   0.000  -0.000   0.000
 -0.000  -0.000  -0.000   0.000  -0.006  -0.000   0.000  -0.000
 -0.000  -0.000   0.000  -0.000  -0.000   0.000  -0.000  -0.000
 -0.000  -0.000  -0.006   0.000  -0.000  -0.000   0.000  -0.000
 -0.000  -0.000   0.000   0.000   0.000   0.000   0.000   0.000
 total augmentation occupancy for first ion, spin component:           1
  1.708  -0.382   0.000   0.000   0.000   0.000   0.000  -0.000   0.000  -0.000  -0.000   0.000  -0.000
 -0.382   0.262   0.000   0.000  -0.000   0.000  -0.000   0.000  -0.000  -0.000   0.000  -0.000   0.000
  0.000   0.000   0.872   0.000   0.000  -0.334  -0.000  -0.000  -0.000   0.000  -0.000  -0.092  -0.000
  0.000  -0.000   0.000   0.872   0.000  -0.000  -0.334  -0.000  -0.092   0.000  -0.000   0.000   0.000
  0.000  -0.000   0.000   0.000   0.872   0.000   0.000  -0.334  -0.000  -0.092  -0.000   0.000   0.000
 -0.000   0.000  -0.334   0.000  -0.000   0.149  -0.000   0.000  -0.000   0.000   0.000   0.042   0.000
  0.000  -0.000  -0.000  -0.334  -0.000   0.000   0.149   0.000   0.042   0.000  -0.000  -0.000  -0.000
  0.000   0.000   0.000  -0.000  -0.334  -0.000   0.000   0.149  -0.000   0.042   0.000   0.000   0.000
 -0.000  -0.000  -0.000  -0.092  -0.000  -0.000   0.042  -0.000   0.023   0.000   0.000   0.000  -0.000
 -0.000  -0.000  -0.000   0.000  -0.092  -0.000   0.000   0.042  -0.000   0.023   0.000  -0.000   0.000
  0.000   0.000  -0.000  -0.000   0.000   0.000   0.000  -0.000   0.000   0.000   0.009   0.000   0.000
 -0.000   0.000  -0.092  -0.000  -0.000   0.042  -0.000  -0.000   0.000   0.000   0.000   0.023  -0.000
  0.000  -0.000  -0.000   0.000   0.000   0.000  -0.000  -0.000   0.000   0.000  -0.000   0.000   0.009


------------------------ aborting loop because EDIFF is reached ----------------------------------------


    CHARGE:  cpu time    0.01: real time    0.01
    FORLOC:  cpu time    0.00: real time    0.00
    FORNL :  cpu time    0.05: real time    0.05
    STRESS:  cpu time    0.22: real time    0.22
    FORCOR:  cpu time    0.00: real time    0.00
    FORHAR:  cpu time    0.00: real time    0.00
    MIXING:  cpu time    0.00: real time    0.00

  FORCE on cell =-STRESS in cart. coord.  units (eV):
  Direction    XX          YY          ZZ          XY          YZ          ZX
  --------------------------------------------------------------------------------------
  Alpha Z    59.64983    59.64983    59.64983
  Ewald    -161.52155  -161.52155  -161.52155    -0.00000     0.00000    -0.00000
  Hartree     8.08267     8.08267     8.08267    -0.00000    -0.00000    -0.00000
  E(xc)     -85.71392   -85.71392   -85.71392    -0.00000    -0.00000     0.00000
  Local     -27.12233   -27.12233   -27.12233    -0.00000     0.00000     0.00000
  n-local    37.65387    37.53910    37.16038     0.54508     0.93298     0.71121
  augment    29.88914    29.88914    29.88914     0.00000    -0.00000     0.00000
  Kinetic   134.48833   137.01742   155.79604     2.01790     8.19837     3.47498
  Fock        0.00000     0.00000     0.00000     0.00000     0.00000     0.00000
  -------------------------------------------------------------------------------------
  Total       3.14888     3.14888     3.14888     0.00000     0.00000    -0.00000
  in kB      26.36043    26.36043    26.36043     0.00000     0.00000    -0.00000
  external pressure =       26.36 kB  Pullay stress =        0.00 kB


 VOLUME and BASIS-vectors are now :
 -----------------------------------------------------------------------------
  energy-cutoff  :      134.68
  volume of cell :      191.39
      direct lattice vectors                 reciprocal lattice vectors
     5.762863000  0.000000000  0.000000000     0.173524861  0.000000000  0.000000000
     0.000000000  5.762863000  0.000000000     0.000000000  0.173524861  0.000000000
     0.000000000  0.000000000  5.762863000     0.000000000  0.000000000  0.173524861

  length of vectors
     5.762863000  5.762863000  5.762863000     0.173524861  0.173524861  0.173524861


 FORCES acting on ions
    electron-ion (+dipol)            ewald-force                    non-local-force                 convergence-correction
 -----------------------------------------------------------------------------------------------
   0.925E-14 0.840E-14 -.108E-14   -.355E-14 0.000E+00 -.178E-14   0.867E-18 -.737E-17 -.115E-16   0.175E-14 -.178E-14 -.657E-14
   -.247E-14 -.329E-14 -.890E-13   0.388E-14 -.205E-14 -.355E-14   0.137E-16 -.239E-17 -.217E-18   -.285E-14 -.480E-16 0.121E-14
   0.925E-14 -.777E-13 0.886E-14   -.355E-14 0.000E+00 -.178E-14   -.108E-17 -.911E-17 0.499E-17   0.105E-14 0.145E-14 0.397E-14
   0.123E-13 0.783E-13 0.172E-14   0.362E-14 -.178E-14 -.369E-14   -.304E-17 -.108E-17 0.111E-16   -.244E-14 -.403E-15 -.222E-14
   0.185E-14 -.327E-13 0.444E-14   -.178E-14 0.178E-14 0.355E-14   -.150E-16 0.126E-16 0.195E-17   -.504E-15 -.212E-14 0.291E-14
   -.247E-14 0.886E-15 0.815E-14   0.357E-14 0.219E-15 0.164E-14   -.260E-17 0.111E-16 0.141E-16   0.553E-15 -.214E-15 -.201E-14
   0.247E-14 -.351E-13 0.761E-14   -.355E-14 0.178E-14 0.355E-14   0.130E-17 -.130E-17 -.802E-17   -.440E-15 0.196E-14 -.592E-14
   0.616E-15 0.687E-14 0.233E-14   0.177E-14 0.866E-17 0.175E-14   0.932E-17 0.115E-16 -.325E-17   0.183E-14 0.199E-15 0.819E-15
 -----------------------------------------------------------------------------------------------
   0.308E-13 -.544E-13 -.570E-13   0.404E-15 -.435E-16 -.286E-15   0.347E-17 0.139E-16 0.911E-17   -.104E-14 -.962E-15 -.782E-14
 
 
 POSITION                                       TOTAL-FORCE (eV/Angst)
 -----------------------------------------------------------------------------------
      4.32215      4.32215      4.32215         0.000000      0.000000      0.000000
      2.88143      0.00000      0.00000        -0.000000      0.000000     -0.000000
      4.32215      1.44072      1.44072         0.000000     -0.000000      0.000000
      2.88143      2.88143      2.88143        -0.000000      0.000000     -0.000000
      1.44072      4.32215      1.44072         0.000000     -0.000000      0.000000
      0.00000      0.00000      2.88143        -0.000000      0.000000     -0.000000
      1.44072      1.44072      4.32215         0.000000     -0.000000      0.000000
      0.00000      2.88143      0.00000        -0.000000      0.000000     -0.000000
 -----------------------------------------------------------------------------------
    total drift:                                0.000000     -0.000000     -0.000000


--------------------------------------------------------------------------------------------------------



  FREE ENERGIE OF THE ION-ELECTRON SYSTEM (eV)
  ---------------------------------------------------
  free  energy   TOTEN  =       -20.89045143 eV

  energy  without entropy=      -20.78925660  energy(sigma->0) =      -20.83985401
 


--------------------------------------------------------------------------------------------------------


    POTLOK:  cpu time    0.02: real time    0.02


--------------------------------------------------------------------------------------------------------


     LOOP+:  cpu time    2.90: real time    2.96
    4ORBIT:  cpu time    0.00: real time    0.00

 total amount of memory used by VASP on root node    35460. kBytes
========================================================================

   base      :      30000. kBytes
   nonl-proj :       4285. kBytes
   fftplans  :         89. kBytes
   grid      :        270. kBytes
   one-center:         64. kBytes
   wavefun   :        752. kBytes
 
  
  
 General timing and accounting informations for this job:
 ========================================================
  
                  Total CPU time used (sec):        4.956
                            User time (sec):        4.818
                          System time (sec):        0.138
                         Elapsed time (sec):        5.386
  
                   Maximum memory used (kb):       61004.
                   Average memory used (kb):           0.
  
                          Minor page faults:        10112
                          Major page faults:            0
                 Voluntary context switches:         6595
