<?xml version="1.0" encoding="ISO-8859-1"?>
<modeling>
 <generator>
  <i name="program" type="string">vasp </i>
  <i name="version" type="string">5.3.3  </i>
  <i name="subversion" type="string">18Dez12 (build Dec 13 2014 13:36:02) complex                          parallel </i>
  <i name="platform" type="string">LinuxIFC </i>
  <i name="date" type="string">2018 11 27 </i>
  <i name="time" type="string">23:29:29 </i>
 </generator>
 <incar>
  <i type="string" name="PREC">normal</i>
  <i type="string" name="ALGO"> Fast</i>
  <i type="int" name="ISPIN">     1</i>
  <i type="int" name="IBRION">    -1</i>
  <i type="int" name="NSW">     0</i>
  <i type="int" name="ISYM">     1</i>
  <i type="int" name="ISMEAR">     0</i>
  <i name="SIGMA">      0.20000000</i>
  <i type="logical" name="LWAVE"> F  </i>
  <i type="logical" name="LCHARG"> F  </i>
 </incar>
 <kpoints>
  <generation param="Monkhorst-Pack">
   <v type="int" name="divisions">      12       12       12 </v>
   <v name="usershift">      0.00000000       0.00000000       0.00000000 </v>
   <v name="genvec1">      0.08333333       0.00000000       0.00000000 </v>
   <v name="genvec2">      0.00000000       0.08333333       0.00000000 </v>
   <v name="genvec3">      0.00000000       0.00000000       0.08333333 </v>
   <v name="shift">      0.50000000       0.50000000       0.50000000 </v>
  </generation>
  <varray name="kpointlist" >
   <v>       0.04166667       0.04166667       0.04166667 </v>
   <v>       0.12500000       0.04166667       0.04166667 </v>
   <v>       0.20833333       0.04166667       0.04166667 </v>
   <v>       0.29166667       0.04166667       0.04166667 </v>
   <v>       0.37500000       0.04166667       0.04166667 </v>
   <v>       0.45833333       0.04166667       0.04166667 </v>
   <v>       0.12500000       0.12500000       0.04166667 </v>
   <v>       0.20833333       0.12500000       0.04166667 </v>
   <v>       0.29166667       0.12500000       0.04166667 </v>
   <v>       0.37500000       0.12500000       0.04166667 </v>
   <v>       0.45833333       0.12500000       0.04166667 </v>
   <v>       0.20833333       0.20833333       0.04166667 </v>
   <v>       0.29166667       0.20833333       0.04166667 </v>
   <v>       0.37500000       0.20833333       0.04166667 </v>
   <v>       0.45833333       0.20833333       0.04166667 </v>
   <v>       0.29166667       0.29166667       0.04166667 </v>
   <v>       0.37500000       0.29166667       0.04166667 </v>
   <v>       0.45833333       0.29166667       0.04166667 </v>
   <v>       0.37500000       0.37500000       0.04166667 </v>
   <v>       0.45833333       0.37500000       0.04166667 </v>
   <v>       0.45833333       0.45833333       0.04166667 </v>
   <v>       0.12500000       0.12500000       0.12500000 </v>
   <v>       0.20833333       0.12500000       0.12500000 </v>
   <v>       0.29166667       0.12500000       0.12500000 </v>
   <v>       0.37500000       0.12500000       0.12500000 </v>
   <v>       0.45833333       0.12500000       0.12500000 </v>
   <v>       0.20833333       0.20833333       0.12500000 </v>
   <v>       0.29166667       0.20833333       0.12500000 </v>
   <v>       0.37500000       0.20833333       0.12500000 </v>
   <v>       0.45833333       0.20833333       0.12500000 </v>
   <v>       0.29166667       0.29166667       0.12500000 </v>
   <v>       0.37500000       0.29166667       0.12500000 </v>
   <v>       0.45833333       0.29166667       0.12500000 </v>
   <v>       0.37500000       0.37500000       0.12500000 </v>
   <v>       0.45833333       0.37500000       0.12500000 </v>
   <v>       0.45833333       0.45833333       0.12500000 </v>
   <v>       0.20833333       0.20833333       0.20833333 </v>
   <v>       0.29166667       0.20833333       0.20833333 </v>
   <v>       0.37500000       0.20833333       0.20833333 </v>
   <v>       0.45833333       0.20833333       0.20833333 </v>
   <v>       0.29166667       0.29166667       0.20833333 </v>
   <v>       0.37500000       0.29166667       0.20833333 </v>
   <v>       0.45833333       0.29166667       0.20833333 </v>
   <v>       0.37500000       0.37500000       0.20833333 </v>
   <v>       0.45833333       0.37500000       0.20833333 </v>
   <v>       0.45833333       0.45833333       0.20833333 </v>
   <v>       0.29166667       0.29166667       0.29166667 </v>
   <v>       0.37500000       0.29166667       0.29166667 </v>
   <v>       0.45833333       0.29166667       0.29166667 </v>
   <v>       0.37500000       0.37500000       0.29166667 </v>
   <v>       0.45833333       0.37500000       0.29166667 </v>
   <v>       0.45833333       0.45833333       0.29166667 </v>
   <v>       0.37500000       0.37500000       0.37500000 </v>
   <v>       0.45833333       0.37500000       0.37500000 </v>
   <v>       0.45833333       0.45833333       0.37500000 </v>
   <v>       0.45833333       0.45833333       0.45833333 </v>
  </varray>
  <varray name="weights" >
   <v>       0.00462963 </v>
   <v>       0.01388889 </v>
   <v>       0.01388889 </v>
   <v>       0.01388889 </v>
   <v>       0.01388889 </v>
   <v>       0.01388889 </v>
   <v>       0.01388889 </v>
   <v>       0.02777778 </v>
   <v>       0.02777778 </v>
   <v>       0.02777778 </v>
   <v>       0.02777778 </v>
   <v>       0.01388889 </v>
   <v>       0.02777778 </v>
   <v>       0.02777778 </v>
   <v>       0.02777778 </v>
   <v>       0.01388889 </v>
   <v>       0.02777778 </v>
   <v>       0.02777778 </v>
   <v>       0.01388889 </v>
   <v>       0.02777778 </v>
   <v>       0.01388889 </v>
   <v>       0.00462963 </v>
   <v>       0.01388889 </v>
   <v>       0.01388889 </v>
   <v>       0.01388889 </v>
   <v>       0.01388889 </v>
   <v>       0.01388889 </v>
   <v>       0.02777778 </v>
   <v>       0.02777778 </v>
   <v>       0.02777778 </v>
   <v>       0.01388889 </v>
   <v>       0.02777778 </v>
   <v>       0.02777778 </v>
   <v>       0.01388889 </v>
   <v>       0.02777778 </v>
   <v>       0.01388889 </v>
   <v>       0.00462963 </v>
   <v>       0.01388889 </v>
   <v>       0.01388889 </v>
   <v>       0.01388889 </v>
   <v>       0.01388889 </v>
   <v>       0.02777778 </v>
   <v>       0.02777778 </v>
   <v>       0.01388889 </v>
   <v>       0.02777778 </v>
   <v>       0.01388889 </v>
   <v>       0.00462963 </v>
   <v>       0.01388889 </v>
   <v>       0.01388889 </v>
   <v>       0.01388889 </v>
   <v>       0.02777778 </v>
   <v>       0.01388889 </v>
   <v>       0.00462963 </v>
   <v>       0.01388889 </v>
   <v>       0.01388889 </v>
   <v>       0.00462963 </v>
  </varray>
 </kpoints>
 <parameters>
  <separator name="general" >
   <i type="string" name="SYSTEM">unknown system</i>
   <i type="logical" name="LCOMPAT"> F  </i>
  </separator>
  <separator name="electronic" >
   <i type="string" name="PREC">normal</i>
   <i name="ENMAX">    134.67800000</i>
   <i name="ENAUG">    320.26400000</i>
   <i name="EDIFF">      0.00010000</i>
   <i type="int" name="IALGO">    68</i>
   <i type="int" name="IWAVPR">    10</i>
   <i type="int" name="NBANDS">    20</i>
   <i name="NELECT">     24.00000000</i>
   <i type="int" name="TURBO">     0</i>
   <i type="int" name="IRESTART">     0</i>
   <i type="int" name="NREBOOT">     0</i>
   <i type="int" name="NMIN">     0</i>
   <i name="EREF">      0.00000000</i>
   <separator name="electronic smearing" >
    <i type="int" name="ISMEAR">     0</i>
    <i name="SIGMA">      0.20000000</i>
    <i name="KSPACING">      0.50000000</i>
    <i type="logical" name="KGAMMA"> T  </i>
   </separator>
   <separator name="electronic projectors" >
    <i type="logical" name="LREAL"> F  </i>
    <v name="ROPT">      0.00000000</v>
    <i type="int" name="LMAXPAW">  -100</i>
    <i type="int" name="LMAXMIX">     2</i>
    <i type="logical" name="NLSPLINE"> F  </i>
   </separator>
   <separator name="electronic startup" >
    <i type="int" name="ISTART">     0</i>
    <i type="int" name="ICHARG">     2</i>
    <i type="int" name="INIWAV">     1</i>
   </separator>
   <separator name="electronic spin" >
    <i type="int" name="ISPIN">     1</i>
    <i type="logical" name="LNONCOLLINEAR"> F  </i>
    <v name="MAGMOM">      1.00000000      1.00000000      1.00000000      1.00000000      1.00000000      1.00000000      1.00000000      1.00000000</v>
    <i name="NUPDOWN">     -1.00000000</i>
    <i type="logical" name="LSORBIT"> F  </i>
    <v name="SAXIS">      0.00000000      0.00000000      1.00000000</v>
    <i type="logical" name="LSPIRAL"> F  </i>
    <v name="QSPIRAL">      0.00000000      0.00000000      0.00000000</v>
    <i type="logical" name="LZEROZ"> F  </i>
   </separator>
   <separator name="electronic exchange-correlation" >
    <i type="logical" name="LASPH"> F  </i>
    <i type="logical" name="LMETAGGA"> F  </i>
   </separator>
   <separator name="electronic convergence" >
    <i type="int" name="NELM">    60</i>
    <i type="int" name="NELMDL">    -5</i>
    <i type="int" name="NELMIN">     2</i>
    <i name="ENINI">    134.67800000</i>
    <separator name="electronic convergence detail" >
     <i type="logical" name="LDIAG"> T  </i>
     <i type="logical" name="LSUBROT"> T  </i>
     <i name="WEIMIN">      0.00000000</i>
     <i name="EBREAK">      0.00000125</i>
     <i name="DEPER">      0.30000000</i>
     <i type="int" name="NRMM">     4</i>
     <i name="TIME">      0.40000000</i>
    </separator>
   </separator>
   <separator name="electronic mixer" >
    <i name="AMIX">      0.40000000</i>
    <i name="BMIX">      1.00000000</i>
    <i name="AMIN">      0.10000000</i>
    <i name="AMIX_MAG">      1.60000000</i>
    <i name="BMIX_MAG">      1.00000000</i>
    <separator name="electronic mixer details" >
     <i type="int" name="IMIX">     4</i>
     <i type="int" name="MAXMIX">   -45</i>
     <i name="WC">    100.00000000</i>
     <i type="int" name="INIMIX">     1</i>
     <i type="int" name="MIXPRE">     1</i>
     <i type="int" name="MREMOVE">     5</i>
    </separator>
   </separator>
   <separator name="electronic dipolcorrection" >
    <i type="logical" name="LDIPOL"> F  </i>
    <i type="logical" name="LMONO"> F  </i>
    <i type="int" name="IDIPOL">     0</i>
    <i name="EPSILON">      1.00000000</i>
    <v name="DIPOL">   -100.00000000   -100.00000000   -100.00000000</v>
    <i name="EFIELD">      0.00000000</i>
   </separator>
  </separator>
  <separator name="grids" >
   <i type="int" name="NGX">    16</i>
   <i type="int" name="NGY">    16</i>
   <i type="int" name="NGZ">    16</i>
   <i type="int" name="NGXF">    32</i>
   <i type="int" name="NGYF">    32</i>
   <i type="int" name="NGZF">    32</i>
   <i type="logical" name="ADDGRID"> F  </i>
  </separator>
  <separator name="ionic" >
   <i type="int" name="NSW">     0</i>
   <i type="int" name="IBRION">    -1</i>
   <i type="int" name="ISIF">     2</i>
   <i name="PSTRESS">      0.00000000</i>
   <i name="EDIFFG">      0.00100000</i>
   <i type="int" name="NFREE">     0</i>
   <i name="POTIM">      0.50000000</i>
   <i name="SMASS">     -3.00000000</i>
   <i name="SCALEE">      1.00000000</i>
  </separator>
  <separator name="ionic md" >
   <i name="TEBEG">      0.00010000</i>
   <i name="TEEND">      0.00010000</i>
   <i type="int" name="NBLOCK">     1</i>
   <i type="int" name="KBLOCK">     1</i>
   <i type="int" name="NPACO">   256</i>
   <i name="APACO">     16.00000000</i>
  </separator>
  <separator name="symmetry" >
   <i type="int" name="ISYM">     1</i>
   <i name="SYMPREC">      0.00001000</i>
  </separator>
  <separator name="dos" >
   <i type="logical" name="LORBIT"> F  </i>
   <v name="RWIGS">     -1.00000000</v>
   <i type="int" name="NEDOS">   301</i>
   <i name="EMIN">     10.00000000</i>
   <i name="EMAX">    -10.00000000</i>
   <i name="EFERMI">      0.00000000</i>
  </separator>
  <separator name="writing" >
   <i type="int" name="NWRITE">     2</i>
   <i type="logical" name="LWAVE"> F  </i>
   <i type="logical" name="LCHARG"> F  </i>
   <i type="logical" name="LPARD"> F  </i>
   <i type="logical" name="LVTOT"> F  </i>
   <i type="logical" name="LVHAR"> F  </i>
   <i type="logical" name="LELF"> F  </i>
   <i type="logical" name="LOPTICS"> F  </i>
   <v name="STM">      0.00000000      0.00000000      0.00000000      0.00000000      0.00000000      0.00000000      0.00000000</v>
  </separator>
  <separator name="performance" >
   <i type="int" name="NPAR">    20</i>
   <i type="int" name="NSIM">     4</i>
   <i type="int" name="NBLK">    -1</i>
   <i type="logical" name="LPLANE"> T  </i>
   <i type="logical" name="LSCALAPACK"> T  </i>
   <i type="logical" name="LSCAAWARE"> F  </i>
   <i type="logical" name="LSCALU"> F  </i>
   <i type="logical" name="LASYNC"> F  </i>
   <i type="logical" name="LORBITALREAL"> F  </i>
  </separator>
  <separator name="miscellaneous" >
   <i type="int" name="IDIOT">     3</i>
   <i type="logical" name="LMUSIC"> F  </i>
   <v name="POMASS">     69.72300000</v>
   <v name="DARWINR">      0.00000000</v>
   <v name="DARWINV">      1.00000000</v>
   <i type="logical" name="LCORR"> T  </i>
  </separator>
  <i type="logical" name="GGA_COMPAT"> T  </i>
  <i type="logical" name="LBERRY"> F  </i>
  <i type="int" name="ICORELEVEL">     0</i>
  <i type="logical" name="LDAU"> F  </i>
  <i type="int" name="I_CONSTRAINED_M">     0</i>
  <separator name="electronic exchange-correlation" >
   <i type="string" name="GGA">--</i>
   <i type="int" name="VOSKOWN">     0</i>
   <i type="logical" name="LHFCALC"> F  </i>
   <i type="string" name="PRECFOCK"></i>
   <i type="logical" name="LSYMGRAD"> F  </i>
   <i type="logical" name="LHFONE"> F  </i>
   <i type="logical" name="LRHFCALC"> F  </i>
   <i type="logical" name="LTHOMAS"> F  </i>
   <i type="logical" name="LMODELHF"> F  </i>
   <i name="ENCUT4O">     -1.00000000</i>
   <i type="int" name="EXXOEP">     0</i>
   <i type="int" name="FOURORBIT">     0</i>
   <i name="AEXX">      0.00000000</i>
   <i name="HFALPHA">      0.00000000</i>
   <i name="MCALPHA">      0.00000000</i>
   <i name="ALDAX">      1.00000000</i>
   <i name="AGGAX">      1.00000000</i>
   <i name="ALDAC">      1.00000000</i>
   <i name="AGGAC">      1.00000000</i>
   <i type="int" name="NKREDX">     1</i>
   <i type="int" name="NKREDY">     1</i>
   <i type="int" name="NKREDZ">     1</i>
   <i type="logical" name="SHIFTRED"> F  </i>
   <i type="logical" name="ODDONLY"> F  </i>
   <i type="logical" name="EVENONLY"> F  </i>
   <i type="int" name="LMAXFOCK">     0</i>
   <i type="int" name="NMAXFOCKAE">     0</i>
   <i type="logical" name="LFOCKAEDFT"> F  </i>
   <i name="HFSCREEN">      0.00000000</i>
   <i name="HFSCREENC">      0.00000000</i>
   <i type="int" name="NBANDSGWLOW">     0</i>
  </separator>
  <separator name="vdW DFT" >
   <i type="logical" name="LUSE_VDW"> F  </i>
   <i name="Zab_VDW">     -0.84910000</i>
   <i name="PARAM1">      0.12340000</i>
   <i name="PARAM2">      1.00000000</i>
   <i name="PARAM3">      0.00000000</i>
  </separator>
  <separator name="model GW" >
   <i type="int" name="MODEL_GW">     0</i>
   <i name="MODEL_EPS0">     14.35410601</i>
   <i name="MODEL_ALPHA">      1.00000000</i>
  </separator>
  <separator name="linear response parameters" >
   <i type="logical" name="LEPSILON"> F  </i>
   <i type="logical" name="LRPA"> F  </i>
   <i type="logical" name="LNABLA"> F  </i>
   <i type="logical" name="LVEL"> F  </i>
   <i type="int" name="KINTER">     0</i>
   <i name="CSHIFT">      0.10000000</i>
   <i name="OMEGAMAX">     -1.00000000</i>
   <i name="DEG_THRESHOLD">      0.00200000</i>
  </separator>
  <separator name="orbital magnetization" >
   <i type="logical" name="NUCIND"> F  </i>
   <v name="MAGPOS">      0.00000000      0.00000000      0.00000000</v>
   <i type="logical" name="LNICSALL"> T  </i>
   <i type="logical" name="ORBITALMAG"> F  </i>
   <i type="logical" name="LMAGBLOCH"> F  </i>
   <i type="logical" name="LCHIMAG"> F  </i>
   <i type="logical" name="LGAUGE"> T  </i>
   <i type="int" name="MAGATOM">     0</i>
   <v name="MAGDIPOL">      0.00000000      0.00000000      0.00000000</v>
   <v name="AVECCONST">      0.00000000      0.00000000      0.00000000</v>
  </separator>
  <separator name="response functions" >
   <i type="logical" name="LADDER"> F  </i>
   <i type="logical" name="LFXC"> F  </i>
   <i type="logical" name="LHARTREE"> T  </i>
   <i type="int" name="IBSE">     0</i>
   <i type="logical" name="LTCTE"> F  </i>
   <i type="logical" name="LTETE"> F  </i>
   <i type="logical" name="LTRIPLET"> F  </i>
   <i type="logical" name="LFXCEPS"> F  </i>
   <i type="logical" name="L2ORDER"> F  </i>
   <i type="logical" name="LUSEW"> F  </i>
   <i name="ENCUTGW">     -2.00000000</i>
   <i name="ENCUTGWSOFT">     -2.00000000</i>
   <i name="ENCUTLF">     -1.00000000</i>
   <i type="int" name="LMAXMP2">    -1</i>
   <i name="SCISSOR">      0.00000000</i>
   <i type="int" name="NOMEGA">     0</i>
   <i type="int" name="NOMEGAR">     0</i>
   <i type="int" name="NBANDSGW">    -1</i>
   <i type="int" name="NBANDSO">    -1</i>
   <i type="int" name="NBANDSV">    -1</i>
   <i type="int" name="NELM">     1</i>
   <i type="int" name="DIM">     3</i>
   <i type="int" name="ANTIRES">     0</i>
   <i name="OMEGAMAX">    -30.00000000</i>
   <i name="OMEGATL">   -200.00000000</i>
   <i type="int" name="OMEGAGRID">     0</i>
   <i name="CSHIFT">     -0.10000000</i>
   <i type="logical" name="SELFENERGY"> F  </i>
   <i type="logical" name="LSPECTRAL"> F  </i>
   <i type="logical" name="ODDONLYGW"> F  </i>
   <i type="logical" name="EVENONLYGW"> F  </i>
   <i type="int" name="NKREDLFX">     1</i>
   <i type="int" name="NKREDLFY">     1</i>
   <i type="int" name="NKREDLFZ">     1</i>
   <i type="int" name="MAXMEM">  1800</i>
   <i type="int" name="TELESCOPE">     0</i>
  </separator>
 </parameters>
 <atominfo>
  <atoms>       8 </atoms>
  <types>       1 </types>
  <array name="atoms" >
   <dimension dim="1">ion</dimension>
   <field type="string">element</field>
   <field type="int">atomtype</field>
   <set>
    <rc><c>Ga</c><c>   1</c></rc>
    <rc><c>Ga</c><c>   1</c></rc>
    <rc><c>Ga</c><c>   1</c></rc>
    <rc><c>Ga</c><c>   1</c></rc>
    <rc><c>Ga</c><c>   1</c></rc>
    <rc><c>Ga</c><c>   1</c></rc>
    <rc><c>Ga</c><c>   1</c></rc>
    <rc><c>Ga</c><c>   1</c></rc>
   </set>
  </array>
  <array name="atomtypes" >
   <dimension dim="1">type</dimension>
   <field type="int">atomspertype</field>
   <field type="string">element</field>
   <field>mass</field>
   <field>valence</field>
   <field type="string">pseudopotential</field>
   <set>
    <rc><c>   8</c><c>Ga</c><c>     69.72300000</c><c>      3.00000000</c><c> PAW_PBE Ga 08Apr2002                   </c></rc>
   </set>
  </array>
 </atominfo>
 <structure name="initialpos" >
  <crystal>
   <varray name="basis" >
    <v>       5.76286300       0.00000000       0.00000000 </v>
    <v>       0.00000000       5.76286300       0.00000000 </v>
    <v>       0.00000000       0.00000000       5.76286300 </v>
   </varray>
   <i name="volume">    191.38808007 </i>
   <varray name="rec_basis" >
    <v>       0.17352486       0.00000000       0.00000000 </v>
    <v>       0.00000000       0.17352486       0.00000000 </v>
    <v>       0.00000000       0.00000000       0.17352486 </v>
   </varray>
  </crystal>
  <varray name="positions" >
   <v>       0.75000000       0.75000000       0.75000000 </v>
   <v>       0.50000000       0.00000000       0.00000000 </v>
   <v>       0.75000000       0.25000000       0.25000000 </v>
   <v>       0.50000000       0.50000000       0.50000000 </v>
   <v>       0.25000000       0.75000000       0.25000000 </v>
   <v>       0.00000000       0.00000000       0.50000000 </v>
   <v>       0.25000000       0.25000000       0.75000000 </v>
   <v>       0.00000000       0.50000000       0.00000000 </v>
  </varray>
 </structure>
 <calculation>
  <scstep>
   <time name="dav">    0.24    0.25</time>
   <time name="total">    0.27    0.28</time>
   <energy>
    <i name="alphaZ">     59.64982895 </i>
    <i name="ewald">   -484.56382983 </i>
    <i name="hartreedc">    -22.55400900 </i>
    <i name="XCdc">   -155.28694958 </i>
    <i name="pawpsdc">    330.10196642 </i>
    <i name="pawaedc">   -140.54714835 </i>
    <i name="eentropy">     -0.06267190 </i>
    <i name="bandstr">    -46.85028027 </i>
    <i name="atom">    470.93120954 </i>
    <i name="e_fr_energy">     10.81811597 </i>
    <i name="e_wo_entrp">     10.88078787 </i>
    <i name="e_0_energy">     10.84945192 </i>
   </energy>
  </scstep>
  <scstep>
   <time name="dav">    0.46    0.47</time>
   <time name="total">    0.47    0.47</time>
   <energy>
    <i name="e_fr_energy">    -20.61482917 </i>
    <i name="e_wo_entrp">    -20.51391382 </i>
    <i name="e_0_energy">    -20.56437149 </i>
   </energy>
  </scstep>
  <scstep>
   <time name="dav">    0.24    0.24</time>
   <time name="total">    0.24    0.25</time>
   <energy>
    <i name="e_fr_energy">    -21.02181558 </i>
    <i name="e_wo_entrp">    -20.92057161 </i>
    <i name="e_0_energy">    -20.97119359 </i>
   </energy>
  </scstep>
  <scstep>
   <time name="dav">    0.63    0.63</time>
   <time name="total">    0.63    0.63</time>
   <energy>
    <i name="e_fr_energy">    -21.02266089 </i>
    <i name="e_wo_entrp">    -20.92140155 </i>
    <i name="e_0_energy">    -20.97203122 </i>
   </energy>
  </scstep>
  <scstep>
   <time name="dav">    0.23    0.23</time>
   <time name="total">    0.25    0.25</time>
   <energy>
    <i name="e_fr_energy">    -21.02266093 </i>
    <i name="e_wo_entrp">    -20.92140159 </i>
    <i name="e_0_energy">    -20.97203126 </i>
   </energy>
  </scstep>
  <scstep>
   <time name="diag">    0.09    0.11</time>
   <time name="diis">    0.07    0.07</time>
   <time name="orth">    0.01    0.01</time>
   <time name="total">    0.18    0.21</time>
   <energy>
    <i name="e_fr_energy">    -20.93666456 </i>
    <i name="e_wo_entrp">    -20.83545304 </i>
    <i name="e_0_energy">    -20.88605880 </i>
   </energy>
  </scstep>
  <scstep>
   <time name="diag">    0.07    0.07</time>
   <time name="diis">    0.07    0.07</time>
   <time name="orth">    0.01    0.01</time>
   <time name="total">    0.16    0.16</time>
   <energy>
    <i name="e_fr_energy">    -20.89010593 </i>
    <i name="e_wo_entrp">    -20.78891672 </i>
    <i name="e_0_energy">    -20.83951132 </i>
   </energy>
  </scstep>
  <scstep>
   <time name="diag">    0.07    0.07</time>
   <time name="diis">    0.12    0.12</time>
   <time name="orth">    0.01    0.01</time>
   <time name="total">    0.21    0.21</time>
   <energy>
    <i name="e_fr_energy">    -20.89041177 </i>
    <i name="e_wo_entrp">    -20.78921296 </i>
    <i name="e_0_energy">    -20.83981236 </i>
   </energy>
  </scstep>
  <scstep>
   <time name="diag">    0.07    0.07</time>
   <time name="diis">    0.09    0.09</time>
   <time name="orth">    0.01    0.01</time>
   <time name="total">    0.17    0.17</time>
   <energy>
    <i name="alphaZ">     59.64982895 </i>
    <i name="ewald">   -484.56382983 </i>
    <i name="hartreedc">    -24.23588119 </i>
    <i name="XCdc">   -153.70086976 </i>
    <i name="pawpsdc">    423.41500459 </i>
    <i name="pawaedc">   -235.28896716 </i>
    <i name="eentropy">     -0.10119483 </i>
    <i name="bandstr">    -76.99575173 </i>
    <i name="atom">    470.93120954 </i>
    <i name="e_fr_energy">    -20.89045143 </i>
    <i name="e_wo_entrp">    -20.78925660 </i>
    <i name="e_0_energy">    -20.83985401 </i>
   </energy>
  </scstep>
  <structure>
   <crystal>
    <varray name="basis" >
     <v>       5.76286300       0.00000000       0.00000000 </v>
     <v>       0.00000000       5.76286300       0.00000000 </v>
     <v>       0.00000000       0.00000000       5.76286300 </v>
    </varray>
    <i name="volume">    191.38808007 </i>
    <varray name="rec_basis" >
     <v>       0.17352486       0.00000000       0.00000000 </v>
     <v>       0.00000000       0.17352486       0.00000000 </v>
     <v>       0.00000000       0.00000000       0.17352486 </v>
    </varray>
   </crystal>
   <varray name="positions" >
    <v>       0.75000000       0.75000000       0.75000000 </v>
    <v>       0.50000000       0.00000000       0.00000000 </v>
    <v>       0.75000000       0.25000000       0.25000000 </v>
    <v>       0.50000000       0.50000000       0.50000000 </v>
    <v>       0.25000000       0.75000000       0.25000000 </v>
    <v>       0.00000000       0.00000000       0.50000000 </v>
    <v>       0.25000000       0.25000000       0.75000000 </v>
    <v>       0.00000000       0.50000000       0.00000000 </v>
   </varray>
  </structure>
  <varray name="forces" >
   <v>       0.00000000       0.00000000       0.00000000 </v>
   <v>      -0.00000000       0.00000000      -0.00000000 </v>
   <v>       0.00000000      -0.00000000       0.00000000 </v>
   <v>      -0.00000000       0.00000000      -0.00000000 </v>
   <v>       0.00000000      -0.00000000       0.00000000 </v>
   <v>      -0.00000000       0.00000000      -0.00000000 </v>
   <v>       0.00000000      -0.00000000       0.00000000 </v>
   <v>      -0.00000000       0.00000000      -0.00000000 </v>
  </varray>
  <varray name="stress" >
   <v>      26.36042730       0.00000000      -0.00000000 </v>
   <v>       0.00000000      26.36042730       0.00000000 </v>
   <v>       0.00000000       0.00000000      26.36042730 </v>
  </varray>
  <energy>
   <i name="e_fr_energy">    -20.89045143 </i>
   <i name="e_wo_entrp">    -20.83985401 </i>
   <i name="e_0_energy">     -0.10119483 </i>
  </energy>
  <time name="totalsc">    2.90    2.96</time>
  <eigenvalues>
   <array>
    <dimension dim="1">band</dimension>
    <dimension dim="2">kpoint</dimension>
    <dimension dim="3">spin</dimension>
    <field>eigene</field>
    <field>occ</field>
    <set>
     <set comment="spin 1">
      <set comment="kpoint 1">
       <r>   -8.8340    1.0000 </r>
       <r>   -5.1478    1.0000 </r>
       <r>   -5.1478    1.0000 </r>
       <r>   -5.1478    1.0000 </r>
       <r>   -4.5148    1.0000 </r>
       <r>   -4.5148    1.0000 </r>
       <r>   -4.5148    1.0000 </r>
       <r>    0.1305    1.0000 </r>
       <r>    0.1305    1.0000 </r>
       <r>    0.1305    1.0000 </r>
       <r>    0.2516    0.9998 </r>
       <r>    0.2516    0.9998 </r>
       <r>    0.2516    0.9998 </r>
       <r>    3.2310    0.0000 </r>
       <r>    3.5935    0.0000 </r>
       <r>    3.5935    0.0000 </r>
       <r>    3.5935    0.0000 </r>
       <r>    3.6197    0.0000 </r>
       <r>    3.6197    0.0000 </r>
       <r>    3.7984    0.0000 </r>
      </set>
      <set comment="kpoint 2">
       <r>   -8.7762    1.0000 </r>
       <r>   -5.7392    1.0000 </r>
       <r>   -5.1245    1.0000 </r>
       <r>   -5.1245    1.0000 </r>
       <r>   -4.5016    1.0000 </r>
       <r>   -4.5016    1.0000 </r>
       <r>   -3.8468    1.0000 </r>
       <r>   -0.1265    1.0000 </r>
       <r>   -0.1265    1.0000 </r>
       <r>    0.1853    1.0000 </r>
       <r>    0.1853    1.0000 </r>
       <r>    0.1964    1.0000 </r>
       <r>    0.3154    0.9991 </r>
       <r>    2.6443    0.0000 </r>
       <r>    3.3020    0.0000 </r>
       <r>    3.4171    0.0000 </r>
       <r>    3.5428    0.0000 </r>
       <r>    3.8115    0.0000 </r>
       <r>    3.8115    0.0000 </r>
       <r>    3.9990    0.0000 </r>
      </set>
      <set comment="kpoint 3">
       <r>   -8.6608    1.0000 </r>
       <r>   -6.2864    1.0000 </r>
       <r>   -5.0823    1.0000 </r>
       <r>   -5.0823    1.0000 </r>
       <r>   -4.4789    1.0000 </r>
       <r>   -4.4789    1.0000 </r>
       <r>   -3.1489    1.0000 </r>
       <r>   -0.4225    1.0000 </r>
       <r>   -0.4225    1.0000 </r>
       <r>   -0.0140    1.0000 </r>
       <r>   -0.0140    1.0000 </r>
       <r>    0.3281    0.9987 </r>
       <r>    0.4410    0.9868 </r>
       <r>    1.9680    0.0000 </r>
       <r>    2.8556    0.0000 </r>
       <r>    2.9456    0.0000 </r>
       <r>    3.5484    0.0000 </r>
       <r>    4.2915    0.0000 </r>
       <r>    4.3078    0.0000 </r>
       <r>    4.3078    0.0000 </r>
      </set>
      <set comment="kpoint 4">
       <r>   -8.4879    1.0000 </r>
       <r>   -6.7855    1.0000 </r>
       <r>   -5.0303    1.0000 </r>
       <r>   -5.0303    1.0000 </r>
       <r>   -4.4536    1.0000 </r>
       <r>   -4.4536    1.0000 </r>
       <r>   -2.4287    1.0000 </r>
       <r>   -0.6877    1.0000 </r>
       <r>   -0.6877    1.0000 </r>
       <r>   -0.2492    1.0000 </r>
       <r>   -0.2492    1.0000 </r>
       <r>    0.5249    0.9481 </r>
       <r>    0.6279    0.8156 </r>
       <r>    1.2602    0.0002 </r>
       <r>    2.3887    0.0000 </r>
       <r>    2.4297    0.0000 </r>
       <r>    3.6197    0.0000 </r>
       <r>    4.6655    0.0000 </r>
       <r>    4.8642    0.0000 </r>
       <r>    5.0011    0.0000 </r>
      </set>
      <set comment="kpoint 5">
       <r>   -8.2581    1.0000 </r>
       <r>   -7.2345    1.0000 </r>
       <r>   -4.9816    1.0000 </r>
       <r>   -4.9816    1.0000 </r>
       <r>   -4.4329    1.0000 </r>
       <r>   -4.4329    1.0000 </r>
       <r>   -1.6931    1.0000 </r>
       <r>   -0.8808    1.0000 </r>
       <r>   -0.8808    1.0000 </r>
       <r>   -0.4448    1.0000 </r>
       <r>   -0.4448    1.0000 </r>
       <r>    0.5340    0.9409 </r>
       <r>    0.7861    0.4129 </r>
       <r>    0.8746    0.1988 </r>
       <r>    1.9391    0.0000 </r>
       <r>    1.9430    0.0000 </r>
       <r>    3.7552    0.0000 </r>
       <r>    4.5164    0.0000 </r>
       <r>    5.1155    0.0000 </r>
       <r>    5.8276    0.0000 </r>
      </set>
      <set comment="kpoint 6">
       <r>   -7.9719    1.0000 </r>
       <r>   -7.6304    1.0000 </r>
       <r>   -4.9517    1.0000 </r>
       <r>   -4.9517    1.0000 </r>
       <r>   -4.4217    1.0000 </r>
       <r>   -4.4217    1.0000 </r>
       <r>   -0.9813    1.0000 </r>
       <r>   -0.9813    1.0000 </r>
       <r>   -0.9482    1.0000 </r>
       <r>   -0.5552    1.0000 </r>
       <r>   -0.5552    1.0000 </r>
       <r>   -0.2038    1.0000 </r>
       <r>    1.1109    0.0059 </r>
       <r>    1.1790    0.0014 </r>
       <r>    1.4964    0.0000 </r>
       <r>    1.5372    0.0000 </r>
       <r>    3.9534    0.0000 </r>
       <r>    4.2093    0.0000 </r>
       <r>    5.6273    0.0000 </r>
       <r>    6.1521    0.0000 </r>
      </set>
      <set comment="kpoint 7">
       <r>   -8.7187    1.0000 </r>
       <r>   -5.7053    1.0000 </r>
       <r>   -5.7053    1.0000 </r>
       <r>   -5.1185    1.0000 </r>
       <r>   -4.4788    1.0000 </r>
       <r>   -3.8539    1.0000 </r>
       <r>   -3.8539    1.0000 </r>
       <r>   -0.4737    1.0000 </r>
       <r>   -0.0581    1.0000 </r>
       <r>   -0.0581    1.0000 </r>
       <r>    0.2568    0.9998 </r>
       <r>    0.2568    0.9998 </r>
       <r>    0.3614    0.9973 </r>
       <r>    2.0879    0.0000 </r>
       <r>    3.0236    0.0000 </r>
       <r>    3.5436    0.0000 </r>
       <r>    3.7244    0.0000 </r>
       <r>    3.8168    0.0000 </r>
       <r>    3.8168    0.0000 </r>
       <r>    4.3595    0.0000 </r>
      </set>
      <set comment="kpoint 8">
       <r>   -8.6036    1.0000 </r>
       <r>   -6.2453    1.0000 </r>
       <r>   -5.6401    1.0000 </r>
       <r>   -5.1148    1.0000 </r>
       <r>   -4.4329    1.0000 </r>
       <r>   -3.8727    1.0000 </r>
       <r>   -3.1831    1.0000 </r>
       <r>   -0.7860    1.0000 </r>
       <r>   -0.3618    1.0000 </r>
       <r>    0.0786    1.0000 </r>
       <r>    0.0860    1.0000 </r>
       <r>    0.3479    0.9980 </r>
       <r>    0.4000    0.9940 </r>
       <r>    1.4646    0.0000 </r>
       <r>    2.5778    0.0000 </r>
       <r>    3.2674    0.0000 </r>
       <r>    3.8590    0.0000 </r>
       <r>    3.9763    0.0000 </r>
       <r>    4.3393    0.0000 </r>
       <r>    4.6092    0.0000 </r>
      </set>
      <set comment="kpoint 9">
       <r>   -8.4313    1.0000 </r>
       <r>   -6.7396    1.0000 </r>
       <r>   -5.5498    1.0000 </r>
       <r>   -5.1265    1.0000 </r>
       <r>   -4.3633    1.0000 </r>
       <r>   -3.9113    1.0000 </r>
       <r>   -2.4995    1.0000 </r>
       <r>   -1.0191    1.0000 </r>
       <r>   -0.6535    1.0000 </r>
       <r>   -0.0949    1.0000 </r>
       <r>    0.1979    1.0000 </r>
       <r>    0.2810    0.9996 </r>
       <r>    0.6174    0.8347 </r>
       <r>    0.8292    0.2999 </r>
       <r>    2.1070    0.0000 </r>
       <r>    2.7684    0.0000 </r>
       <r>    3.9553    0.0000 </r>
       <r>    4.5191    0.0000 </r>
       <r>    4.9484    0.0000 </r>
       <r>    5.0434    0.0000 </r>
      </set>
      <set comment="kpoint 10">
       <r>   -8.2025    1.0000 </r>
       <r>   -7.1846    1.0000 </r>
       <r>   -5.4437    1.0000 </r>
       <r>   -5.1660    1.0000 </r>
       <r>   -4.2724    1.0000 </r>
       <r>   -3.9755    1.0000 </r>
       <r>   -1.8132    1.0000 </r>
       <r>   -1.1479    1.0000 </r>
       <r>   -0.8995    1.0000 </r>
       <r>   -0.2116    1.0000 </r>
       <r>    0.0080    1.0000 </r>
       <r>    0.1865    1.0000 </r>
       <r>    0.5450    0.9312 </r>
       <r>    0.9116    0.1340 </r>
       <r>    1.6544    0.0000 </r>
       <r>    2.2331    0.0000 </r>
       <r>    4.1098    0.0000 </r>
       <r>    4.9002    0.0000 </r>
       <r>    5.2597    0.0000 </r>
       <r>    5.3657    0.0000 </r>
      </set>
      <set comment="kpoint 11">
       <r>   -7.9177    1.0000 </r>
       <r>   -7.5780    1.0000 </r>
       <r>   -5.3346    1.0000 </r>
       <r>   -5.2375    1.0000 </r>
       <r>   -4.1683    1.0000 </r>
       <r>   -4.0643    1.0000 </r>
       <r>   -1.1652    1.0000 </r>
       <r>   -1.1331    1.0000 </r>
       <r>   -1.0769    1.0000 </r>
       <r>   -0.4664    1.0000 </r>
       <r>   -0.2300    1.0000 </r>
       <r>   -0.1491    1.0000 </r>
       <r>    0.8654    0.2176 </r>
       <r>    1.2374    0.0003 </r>
       <r>    1.2832    0.0001 </r>
       <r>    1.7282    0.0000 </r>
       <r>    4.3217    0.0000 </r>
       <r>    4.5876    0.0000 </r>
       <r>    5.8393    0.0000 </r>
       <r>    6.1313    0.0000 </r>
      </set>
      <set comment="kpoint 12">
       <r>   -8.4894    1.0000 </r>
       <r>   -6.1652    1.0000 </r>
       <r>   -6.1652    1.0000 </r>
       <r>   -5.1817    1.0000 </r>
       <r>   -4.3436    1.0000 </r>
       <r>   -3.2544    1.0000 </r>
       <r>   -3.2544    1.0000 </r>
       <r>   -1.0704    1.0000 </r>
       <r>   -0.2399    1.0000 </r>
       <r>   -0.2399    1.0000 </r>
       <r>    0.2864    0.9995 </r>
       <r>    0.2864    0.9995 </r>
       <r>    0.5763    0.8969 </r>
       <r>    0.8849    0.1791 </r>
       <r>    2.1399    0.0000 </r>
       <r>    3.3715    0.0000 </r>
       <r>    3.9329    0.0000 </r>
       <r>    4.4112    0.0000 </r>
       <r>    4.4112    0.0000 </r>
       <r>    5.1683    0.0000 </r>
      </set>
      <set comment="kpoint 13">
       <r>   -8.3185    1.0000 </r>
       <r>   -6.6489    1.0000 </r>
       <r>   -6.0501    1.0000 </r>
       <r>   -5.2841    1.0000 </r>
       <r>   -4.2162    1.0000 </r>
       <r>   -3.3667    1.0000 </r>
       <r>   -2.6379    1.0000 </r>
       <r>   -1.2479    1.0000 </r>
       <r>   -0.5666    1.0000 </r>
       <r>   -0.0573    1.0000 </r>
       <r>    0.1924    1.0000 </r>
       <r>    0.2991    0.9994 </r>
       <r>    0.5868    0.8829 </r>
       <r>    0.6122    0.8436 </r>
       <r>    1.6789    0.0000 </r>
       <r>    3.0704    0.0000 </r>
       <r>    4.2325    0.0000 </r>
       <r>    4.5314    0.0000 </r>
       <r>    5.1301    0.0000 </r>
       <r>    5.4629    0.0000 </r>
      </set>
      <set comment="kpoint 14">
       <r>   -8.0916    1.0000 </r>
       <r>   -7.0861    1.0000 </r>
       <r>   -5.9067    1.0000 </r>
       <r>   -5.4192    1.0000 </r>
       <r>   -4.0581    1.0000 </r>
       <r>   -3.5165    1.0000 </r>
       <r>   -2.0318    1.0000 </r>
       <r>   -1.3079    1.0000 </r>
       <r>   -0.8622    1.0000 </r>
       <r>   -0.2812    1.0000 </r>
       <r>    0.1707    1.0000 </r>
       <r>    0.1846    1.0000 </r>
       <r>    0.5068    0.9604 </r>
       <r>    0.9824    0.0539 </r>
       <r>    1.2380    0.0003 </r>
       <r>    2.5600    0.0000 </r>
       <r>    4.7037    0.0000 </r>
       <r>    4.8218    0.0000 </r>
       <r>    5.4957    0.0000 </r>
       <r>    5.8310    0.0000 </r>
      </set>
      <set comment="kpoint 15">
       <r>   -7.8097    1.0000 </r>
       <r>   -7.4740    1.0000 </r>
       <r>   -5.7451    1.0000 </r>
       <r>   -5.5775    1.0000 </r>
       <r>   -3.8790    1.0000 </r>
       <r>   -3.6930    1.0000 </r>
       <r>   -1.4392    1.0000 </r>
       <r>   -1.2539    1.0000 </r>
       <r>   -1.0994    1.0000 </r>
       <r>   -0.8585    1.0000 </r>
       <r>    0.2306    0.9999 </r>
       <r>    0.3564    0.9976 </r>
       <r>    0.4836    0.9725 </r>
       <r>    0.8364    0.2824 </r>
       <r>    1.4613    0.0000 </r>
       <r>    1.9998    0.0000 </r>
       <r>    4.9271    0.0000 </r>
       <r>    5.1970    0.0000 </r>
       <r>    5.6066    0.0000 </r>
       <r>    6.2316    0.0000 </r>
      </set>
      <set comment="kpoint 16">
       <r>   -8.1498    1.0000 </r>
       <r>   -6.5162    1.0000 </r>
       <r>   -6.5162    1.0000 </r>
       <r>   -5.4802    1.0000 </r>
       <r>   -4.0312    1.0000 </r>
       <r>   -2.8336    1.0000 </r>
       <r>   -2.8336    1.0000 </r>
       <r>   -1.3581    1.0000 </r>
       <r>   -0.4164    1.0000 </r>
       <r>   -0.4164    1.0000 </r>
       <r>   -0.2416    1.0000 </r>
       <r>    0.5941    0.8723 </r>
       <r>    0.5941    0.8723 </r>
       <r>    0.8886    0.1724 </r>
       <r>    1.2275    0.0004 </r>
       <r>    3.0843    0.0000 </r>
       <r>    4.2339    0.0000 </r>
       <r>    5.2638    0.0000 </r>
       <r>    5.2638    0.0000 </r>
       <r>    5.5784    0.0000 </r>
      </set>
      <set comment="kpoint 17">
       <r>   -7.9262    1.0000 </r>
       <r>   -6.9410    1.0000 </r>
       <r>   -6.3464    1.0000 </r>
       <r>   -5.6995    1.0000 </r>
       <r>   -3.8160    1.0000 </r>
       <r>   -3.0692    1.0000 </r>
       <r>   -2.3144    1.0000 </r>
       <r>   -1.3505    1.0000 </r>
       <r>   -0.7730    1.0000 </r>
       <r>   -0.7503    1.0000 </r>
       <r>   -0.2018    1.0000 </r>
       <r>    0.6595    0.7502 </r>
       <r>    0.7982    0.3801 </r>
       <r>    0.9668    0.0671 </r>
       <r>    1.0893    0.0090 </r>
       <r>    2.7545    0.0000 </r>
       <r>    4.5762    0.0000 </r>
       <r>    5.4445    0.0000 </r>
       <r>    5.7719    0.0000 </r>
       <r>    6.1049    0.0000 </r>
      </set>
      <set comment="kpoint 18">
       <r>   -7.6490    1.0000 </r>
       <r>   -7.3197    1.0000 </r>
       <r>   -6.1467    1.0000 </r>
       <r>   -5.9267    1.0000 </r>
       <r>   -3.5769    1.0000 </r>
       <r>   -3.3233    1.0000 </r>
       <r>   -1.8033    1.0000 </r>
       <r>   -1.2923    1.0000 </r>
       <r>   -1.2366    1.0000 </r>
       <r>   -1.0308    1.0000 </r>
       <r>    0.0752    1.0000 </r>
       <r>    0.4106    0.9926 </r>
       <r>    0.7721    0.4519 </r>
       <r>    0.8971    0.1575 </r>
       <r>    1.6503    0.0000 </r>
       <r>    2.2305    0.0000 </r>
       <r>    5.2049    0.0000 </r>
       <r>    5.6669    0.0000 </r>
       <r>    5.8933    0.0000 </r>
       <r>    6.0224    0.0000 </r>
      </set>
      <set comment="kpoint 19">
       <r>   -7.7075    1.0000 </r>
       <r>   -6.7521    1.0000 </r>
       <r>   -6.7521    1.0000 </r>
       <r>   -5.9874    1.0000 </r>
       <r>   -3.5494    1.0000 </r>
       <r>   -2.6282    1.0000 </r>
       <r>   -2.6282    1.0000 </r>
       <r>   -1.2848    1.0000 </r>
       <r>   -1.2590    1.0000 </r>
       <r>   -0.5643    1.0000 </r>
       <r>   -0.5643    1.0000 </r>
       <r>    0.3810    0.9959 </r>
       <r>    1.2208    0.0005 </r>
       <r>    1.2208    0.0005 </r>
       <r>    1.2834    0.0001 </r>
       <r>    2.6893    0.0000 </r>
       <r>    4.6130    0.0000 </r>
       <r>    5.6243    0.0000 </r>
       <r>    6.2645    0.0000 </r>
       <r>    6.2710    0.0000 </r>
      </set>
      <set comment="kpoint 20">
       <r>   -7.4371    1.0000 </r>
       <r>   -7.1173    1.0000 </r>
       <r>   -6.5252    1.0000 </r>
       <r>   -6.2670    1.0000 </r>
       <r>   -3.2587    1.0000 </r>
       <r>   -2.9484    1.0000 </r>
       <r>   -2.1843    1.0000 </r>
       <r>   -1.7297    1.0000 </r>
       <r>   -1.1223    1.0000 </r>
       <r>   -0.8773    1.0000 </r>
       <r>   -0.3096    1.0000 </r>
       <r>    0.0079    1.0000 </r>
       <r>    1.3428    0.0000 </r>
       <r>    1.3938    0.0000 </r>
       <r>    1.8061    0.0000 </r>
       <r>    2.3360    0.0000 </r>
       <r>    4.9852    0.0000 </r>
       <r>    5.6336    0.0000 </r>
       <r>    5.7174    0.0000 </r>
       <r>    6.0090    0.0000 </r>
      </set>
      <set comment="kpoint 21">
       <r>   -7.1763    1.0000 </r>
       <r>   -6.8707    1.0000 </r>
       <r>   -6.8707    1.0000 </r>
       <r>   -6.5849    1.0000 </r>
       <r>   -2.9197    1.0000 </r>
       <r>   -2.5602    1.0000 </r>
       <r>   -2.5602    1.0000 </r>
       <r>   -2.1543    1.0000 </r>
       <r>   -0.9219    1.0000 </r>
       <r>   -0.6470    1.0000 </r>
       <r>   -0.6470    1.0000 </r>
       <r>   -0.3487    1.0000 </r>
       <r>    1.7405    0.0000 </r>
       <r>    1.8645    0.0000 </r>
       <r>    1.8645    0.0000 </r>
       <r>    2.2237    0.0000 </r>
       <r>    5.0357    0.0000 </r>
       <r>    5.4059    0.0000 </r>
       <r>    5.4059    0.0000 </r>
       <r>    5.4209    0.0000 </r>
      </set>
      <set comment="kpoint 22">
       <r>   -8.6613    1.0000 </r>
       <r>   -5.6775    1.0000 </r>
       <r>   -5.6775    1.0000 </r>
       <r>   -5.6775    1.0000 </r>
       <r>   -3.8649    1.0000 </r>
       <r>   -3.8649    1.0000 </r>
       <r>   -3.8649    1.0000 </r>
       <r>   -0.3843    1.0000 </r>
       <r>   -0.3843    1.0000 </r>
       <r>   -0.3843    1.0000 </r>
       <r>    0.4231    0.9905 </r>
       <r>    0.4231    0.9905 </r>
       <r>    0.4231    0.9905 </r>
       <r>    1.5774    0.0000 </r>
       <r>    3.2693    0.0000 </r>
       <r>    3.2693    0.0000 </r>
       <r>    3.7762    0.0000 </r>
       <r>    3.7762    0.0000 </r>
       <r>    3.7762    0.0000 </r>
       <r>    4.8918    0.0000 </r>
      </set>
      <set comment="kpoint 23">
       <r>   -8.5466    1.0000 </r>
       <r>   -6.2077    1.0000 </r>
       <r>   -5.6270    1.0000 </r>
       <r>   -5.6270    1.0000 </r>
       <r>   -3.8889    1.0000 </r>
       <r>   -3.8889    1.0000 </r>
       <r>   -3.2290    1.0000 </r>
       <r>   -0.6785    1.0000 </r>
       <r>   -0.6785    1.0000 </r>
       <r>   -0.2044    1.0000 </r>
       <r>    0.4156    0.9918 </r>
       <r>    0.4156    0.9918 </r>
       <r>    0.5463    0.9300 </r>
       <r>    0.9906    0.0478 </r>
       <r>    2.8640    0.0000 </r>
       <r>    3.0922    0.0000 </r>
       <r>    3.8798    0.0000 </r>
       <r>    4.0385    0.0000 </r>
       <r>    4.0385    0.0000 </r>
       <r>    5.0782    0.0000 </r>
      </set>
      <set comment="kpoint 24">
       <r>   -8.3751    1.0000 </r>
       <r>   -6.6956    1.0000 </r>
       <r>   -5.5634    1.0000 </r>
       <r>   -5.5634    1.0000 </r>
       <r>   -3.9260    1.0000 </r>
       <r>   -3.9260    1.0000 </r>
       <r>   -2.5923    1.0000 </r>
       <r>   -0.8994    1.0000 </r>
       <r>   -0.8994    1.0000 </r>
       <r>    0.0692    1.0000 </r>
       <r>    0.2865    0.9995 </r>
       <r>    0.2865    0.9995 </r>
       <r>    0.4003    0.9939 </r>
       <r>    0.7293    0.5722 </r>
       <r>    2.4270    0.0000 </r>
       <r>    2.5888    0.0000 </r>
       <r>    4.0355    0.0000 </r>
       <r>    4.5817    0.0000 </r>
       <r>    4.5817    0.0000 </r>
       <r>    5.3445    0.0000 </r>
      </set>
      <set comment="kpoint 25">
       <r>   -8.1473    1.0000 </r>
       <r>   -7.1363    1.0000 </r>
       <r>   -5.5029    1.0000 </r>
       <r>   -5.5029    1.0000 </r>
       <r>   -3.9679    1.0000 </r>
       <r>   -3.9679    1.0000 </r>
       <r>   -1.9661    1.0000 </r>
       <r>   -1.0349    1.0000 </r>
       <r>   -1.0349    1.0000 </r>
       <r>   -0.1840    1.0000 </r>
       <r>    0.1346    1.0000 </r>
       <r>    0.1346    1.0000 </r>
       <r>    0.4366    0.9878 </r>
       <r>    0.9699    0.0643 </r>
       <r>    2.0025    0.0000 </r>
       <r>    2.0027    0.0000 </r>
       <r>    4.2420    0.0000 </r>
       <r>    5.1111    0.0000 </r>
       <r>    5.3197    0.0000 </r>
       <r>    5.3197    0.0000 </r>
      </set>
      <set comment="kpoint 26">
       <r>   -7.8641    1.0000 </r>
       <r>   -7.5266    1.0000 </r>
       <r>   -5.4651    1.0000 </r>
       <r>   -5.4651    1.0000 </r>
       <r>   -3.9966    1.0000 </r>
       <r>   -3.9966    1.0000 </r>
       <r>   -1.3578    1.0000 </r>
       <r>   -1.0953    1.0000 </r>
       <r>   -1.0953    1.0000 </r>
       <r>   -0.7667    1.0000 </r>
       <r>    0.0384    1.0000 </r>
       <r>    0.0384    1.0000 </r>
       <r>    0.8934    0.1639 </r>
       <r>    1.2658    0.0002 </r>
       <r>    1.4237    0.0000 </r>
       <r>    1.6122    0.0000 </r>
       <r>    4.4974    0.0000 </r>
       <r>    4.7939    0.0000 </r>
       <r>    6.1237    0.0000 </r>
       <r>    6.1879    0.0000 </r>
      </set>
      <set comment="kpoint 27">
       <r>   -8.4329    1.0000 </r>
       <r>   -6.1355    1.0000 </r>
       <r>   -6.1355    1.0000 </r>
       <r>   -5.6090    1.0000 </r>
       <r>   -3.9159    1.0000 </r>
       <r>   -3.3214    1.0000 </r>
       <r>   -3.3214    1.0000 </r>
       <r>   -0.9257    1.0000 </r>
       <r>   -0.4646    1.0000 </r>
       <r>   -0.4646    1.0000 </r>
       <r>    0.4321    0.9888 </r>
       <r>    0.5525    0.9239 </r>
       <r>    0.5525    0.9239 </r>
       <r>    0.6349    0.8021 </r>
       <r>    2.5515    0.0000 </r>
       <r>    3.1731    0.0000 </r>
       <r>    4.0028    0.0000 </r>
       <r>    4.1616    0.0000 </r>
       <r>    4.1616    0.0000 </r>
       <r>    4.9405    0.0000 </r>
      </set>
      <set comment="kpoint 28">
       <r>   -8.2629    1.0000 </r>
       <r>   -6.6094    1.0000 </r>
       <r>   -6.0346    1.0000 </r>
       <r>   -5.6021    1.0000 </r>
       <r>   -3.9379    1.0000 </r>
       <r>   -3.4533    1.0000 </r>
       <r>   -2.7653    1.0000 </r>
       <r>   -1.0689    1.0000 </r>
       <r>   -0.6708    1.0000 </r>
       <r>   -0.1489    1.0000 </r>
       <r>   -0.1251    1.0000 </r>
       <r>    0.4691    0.9784 </r>
       <r>    0.6756    0.7128 </r>
       <r>    0.7612    0.4825 </r>
       <r>    2.1034    0.0000 </r>
       <r>    2.8964    0.0000 </r>
       <r>    4.3019    0.0000 </r>
       <r>    4.3430    0.0000 </r>
       <r>    4.7057    0.0000 </r>
       <r>    5.1802    0.0000 </r>
      </set>
      <set comment="kpoint 29">
       <r>   -8.0374    1.0000 </r>
       <r>   -7.0407    1.0000 </r>
       <r>   -5.9157    1.0000 </r>
       <r>   -5.6260    1.0000 </r>
       <r>   -3.9295    1.0000 </r>
       <r>   -3.6072    1.0000 </r>
       <r>   -2.2285    1.0000 </r>
       <r>   -1.1087    1.0000 </r>
       <r>   -0.8321    1.0000 </r>
       <r>   -0.6656    1.0000 </r>
       <r>    0.2515    0.9998 </r>
       <r>    0.3936    0.9947 </r>
       <r>    0.5877    0.8816 </r>
       <r>    1.0483    0.0190 </r>
       <r>    1.6402    0.0000 </r>
       <r>    2.4036    0.0000 </r>
       <r>    4.5778    0.0000 </r>
       <r>    4.8861    0.0000 </r>
       <r>    5.3578    0.0000 </r>
       <r>    5.4379    0.0000 </r>
      </set>
      <set comment="kpoint 30">
       <r>   -7.7574    1.0000 </r>
       <r>   -7.4244    1.0000 </r>
       <r>   -5.7948    1.0000 </r>
       <r>   -5.6921    1.0000 </r>
       <r>   -3.8693    1.0000 </r>
       <r>   -3.7555    1.0000 </r>
       <r>   -1.7068    1.0000 </r>
       <r>   -1.1903    1.0000 </r>
       <r>   -1.0647    1.0000 </r>
       <r>   -0.9647    1.0000 </r>
       <r>    0.3905    0.9950 </r>
       <r>    0.4679    0.9788 </r>
       <r>    0.7044    0.6397 </r>
       <r>    1.1730    0.0016 </r>
       <r>    1.4226    0.0000 </r>
       <r>    1.8844    0.0000 </r>
       <r>    4.8558    0.0000 </r>
       <r>    5.1511    0.0000 </r>
       <r>    5.6645    0.0000 </r>
       <r>    6.3004    0.0000 </r>
      </set>
      <set comment="kpoint 31">
       <r>   -8.0954    1.0000 </r>
       <r>   -6.4853    1.0000 </r>
       <r>   -6.4853    1.0000 </r>
       <r>   -5.6817    1.0000 </r>
       <r>   -3.9166    1.0000 </r>
       <r>   -2.9931    1.0000 </r>
       <r>   -2.9931    1.0000 </r>
       <r>   -1.1281    1.0000 </r>
       <r>   -0.6515    1.0000 </r>
       <r>   -0.3587    1.0000 </r>
       <r>   -0.3587    1.0000 </r>
       <r>    0.7553    0.4991 </r>
       <r>    0.7553    0.4991 </r>
       <r>    0.9415    0.0937 </r>
       <r>    1.6695    0.0000 </r>
       <r>    2.9703    0.0000 </r>
       <r>    4.3046    0.0000 </r>
       <r>    4.8874    0.0000 </r>
       <r>    4.8874    0.0000 </r>
       <r>    5.1346    0.0000 </r>
      </set>
      <set comment="kpoint 32">
       <r>   -7.8736    1.0000 </r>
       <r>   -6.9007    1.0000 </r>
       <r>   -6.3296    1.0000 </r>
       <r>   -5.8087    1.0000 </r>
       <r>   -3.8356    1.0000 </r>
       <r>   -3.2429    1.0000 </r>
       <r>   -2.5453    1.0000 </r>
       <r>   -1.1574    1.0000 </r>
       <r>   -1.0842    1.0000 </r>
       <r>   -0.5710    1.0000 </r>
       <r>    0.0048    1.0000 </r>
       <r>    0.7827    0.4224 </r>
       <r>    1.0225    0.0293 </r>
       <r>    1.1501    0.0026 </r>
       <r>    1.2296    0.0004 </r>
       <r>    2.6669    0.0000 </r>
       <r>    4.6416    0.0000 </r>
       <r>    5.1183    0.0000 </r>
       <r>    5.3689    0.0000 </r>
       <r>    5.6085    0.0000 </r>
      </set>
      <set comment="kpoint 33">
       <r>   -7.5990    1.0000 </r>
       <r>   -7.2736    1.0000 </r>
       <r>   -6.1536    1.0000 </r>
       <r>   -5.9731    1.0000 </r>
       <r>   -3.6879    1.0000 </r>
       <r>   -3.4836    1.0000 </r>
       <r>   -2.0975    1.0000 </r>
       <r>   -1.6382    1.0000 </r>
       <r>   -0.9600    1.0000 </r>
       <r>   -0.7797    1.0000 </r>
       <r>    0.3947    0.9946 </r>
       <r>    0.8028    0.3677 </r>
       <r>    0.8626    0.2234 </r>
       <r>    0.9654    0.0684 </r>
       <r>    1.6375    0.0000 </r>
       <r>    2.1706    0.0000 </r>
       <r>    5.2605    0.0000 </r>
       <r>    5.3718    0.0000 </r>
       <r>    5.5362    0.0000 </r>
       <r>    6.0582    0.0000 </r>
      </set>
      <set comment="kpoint 34">
       <r>   -7.6573    1.0000 </r>
       <r>   -6.7207    1.0000 </r>
       <r>   -6.7207    1.0000 </r>
       <r>   -6.0328    1.0000 </r>
       <r>   -3.6764    1.0000 </r>
       <r>   -2.8731    1.0000 </r>
       <r>   -2.8731    1.0000 </r>
       <r>   -1.6297    1.0000 </r>
       <r>   -0.9709    1.0000 </r>
       <r>   -0.2722    1.0000 </r>
       <r>   -0.2722    1.0000 </r>
       <r>    0.8167    0.3314 </r>
       <r>    1.2742    0.0001 </r>
       <r>    1.2742    0.0001 </r>
       <r>    1.3277    0.0000 </r>
       <r>    2.6442    0.0000 </r>
       <r>    4.6742    0.0000 </r>
       <r>    5.3495    0.0000 </r>
       <r>    5.7999    0.0000 </r>
       <r>    5.7999    0.0000 </r>
      </set>
      <set comment="kpoint 35">
       <r>   -7.3906    1.0000 </r>
       <r>   -7.0767    1.0000 </r>
       <r>   -6.5078    1.0000 </r>
       <r>   -6.2732    1.0000 </r>
       <r>   -3.4554    1.0000 </r>
       <r>   -3.1831    1.0000 </r>
       <r>   -2.4858    1.0000 </r>
       <r>   -2.0729    1.0000 </r>
       <r>   -0.7849    1.0000 </r>
       <r>   -0.5447    1.0000 </r>
       <r>    0.0596    1.0000 </r>
       <r>    0.4233    0.9905 </r>
       <r>    1.3896    0.0000 </r>
       <r>    1.4367    0.0000 </r>
       <r>    1.8141    0.0000 </r>
       <r>    2.3149    0.0000 </r>
       <r>    5.0333    0.0000 </r>
       <r>    5.5264    0.0000 </r>
       <r>    5.6530    0.0000 </r>
       <r>    5.7994    0.0000 </r>
      </set>
      <set comment="kpoint 36">
       <r>   -7.1357    1.0000 </r>
       <r>   -6.8389    1.0000 </r>
       <r>   -6.8389    1.0000 </r>
       <r>   -6.5674    1.0000 </r>
       <r>   -3.1743    1.0000 </r>
       <r>   -2.8490    1.0000 </r>
       <r>   -2.8490    1.0000 </r>
       <r>   -2.4784    1.0000 </r>
       <r>   -0.5485    1.0000 </r>
       <r>   -0.2620    1.0000 </r>
       <r>   -0.2620    1.0000 </r>
       <r>    0.0633    1.0000 </r>
       <r>    1.7689    0.0000 </r>
       <r>    1.8842    0.0000 </r>
       <r>    1.8842    0.0000 </r>
       <r>    2.2246    0.0000 </r>
       <r>    5.0653    0.0000 </r>
       <r>    5.3517    0.0000 </r>
       <r>    5.3946    0.0000 </r>
       <r>    5.3946    0.0000 </r>
      </set>
      <set comment="kpoint 37">
       <r>   -8.3204    1.0000 </r>
       <r>   -6.0807    1.0000 </r>
       <r>   -6.0807    1.0000 </r>
       <r>   -6.0807    1.0000 </r>
       <r>   -3.4437    1.0000 </r>
       <r>   -3.4437    1.0000 </r>
       <r>   -3.4437    1.0000 </r>
       <r>   -0.6392    1.0000 </r>
       <r>   -0.6392    1.0000 </r>
       <r>   -0.6392    1.0000 </r>
       <r>   -0.1085    1.0000 </r>
       <r>    0.7516    0.5096 </r>
       <r>    0.7516    0.5096 </r>
       <r>    0.7516    0.5096 </r>
       <r>    2.8514    0.0000 </r>
       <r>    2.8514    0.0000 </r>
       <r>    4.1416    0.0000 </r>
       <r>    4.1416    0.0000 </r>
       <r>    4.1416    0.0000 </r>
       <r>    4.6129    0.0000 </r>
      </set>
      <set comment="kpoint 38">
       <r>   -8.1522    1.0000 </r>
       <r>   -6.5337    1.0000 </r>
       <r>   -6.0117    1.0000 </r>
       <r>   -6.0117    1.0000 </r>
       <r>   -3.5938    1.0000 </r>
       <r>   -3.5938    1.0000 </r>
       <r>   -2.9839    1.0000 </r>
       <r>   -0.7297    1.0000 </r>
       <r>   -0.7297    1.0000 </r>
       <r>   -0.6436    1.0000 </r>
       <r>   -0.2224    1.0000 </r>
       <r>    0.8032    0.3667 </r>
       <r>    0.8032    0.3667 </r>
       <r>    0.9251    0.1145 </r>
       <r>    2.4804    0.0000 </r>
       <r>    2.6725    0.0000 </r>
       <r>    4.3454    0.0000 </r>
       <r>    4.4390    0.0000 </r>
       <r>    4.4390    0.0000 </r>
       <r>    4.7563    0.0000 </r>
      </set>
      <set comment="kpoint 39">
       <r>   -7.9295    1.0000 </r>
       <r>   -6.9519    1.0000 </r>
       <r>   -5.9455    1.0000 </r>
       <r>   -5.9455    1.0000 </r>
       <r>   -3.7313    1.0000 </r>
       <r>   -3.7313    1.0000 </r>
       <r>   -2.5384    1.0000 </r>
       <r>   -1.1537    1.0000 </r>
       <r>   -0.7553    1.0000 </r>
       <r>   -0.7553    1.0000 </r>
       <r>    0.3003    0.9993 </r>
       <r>    0.7538    0.5033 </r>
       <r>    0.7538    0.5033 </r>
       <r>    1.1518    0.0025 </r>
       <r>    2.1045    0.0000 </r>
       <r>    2.1509    0.0000 </r>
       <r>    4.6058    0.0000 </r>
       <r>    5.0119    0.0000 </r>
       <r>    5.0119    0.0000 </r>
       <r>    5.1115    0.0000 </r>
      </set>
      <set comment="kpoint 40">
       <r>   -7.6536    1.0000 </r>
       <r>   -7.3267    1.0000 </r>
       <r>   -5.9039    1.0000 </r>
       <r>   -5.9039    1.0000 </r>
       <r>   -3.8142    1.0000 </r>
       <r>   -3.8142    1.0000 </r>
       <r>   -2.0938    1.0000 </r>
       <r>   -1.6352    1.0000 </r>
       <r>   -0.7537    1.0000 </r>
       <r>   -0.7537    1.0000 </r>
       <r>    0.6982    0.6561 </r>
       <r>    0.6982    0.6561 </r>
       <r>    0.8967    0.1581 </r>
       <r>    1.4285    0.0000 </r>
       <r>    1.5286    0.0000 </r>
       <r>    1.7497    0.0000 </r>
       <r>    4.8991    0.0000 </r>
       <r>    5.1494    0.0000 </r>
       <r>    5.7738    0.0000 </r>
       <r>    5.7738    0.0000 </r>
      </set>
      <set comment="kpoint 41">
       <r>   -7.9872    1.0000 </r>
       <r>   -6.4282    1.0000 </r>
       <r>   -6.4282    1.0000 </r>
       <r>   -5.9980    1.0000 </r>
       <r>   -3.7332    1.0000 </r>
       <r>   -3.2422    1.0000 </r>
       <r>   -3.2422    1.0000 </r>
       <r>   -1.1571    1.0000 </r>
       <r>   -0.7098    1.0000 </r>
       <r>   -0.2671    1.0000 </r>
       <r>   -0.2671    1.0000 </r>
       <r>    0.9973    0.0433 </r>
       <r>    0.9973    0.0433 </r>
       <r>    1.0471    0.0194 </r>
       <r>    2.1884    0.0000 </r>
       <r>    2.7638    0.0000 </r>
       <r>    4.4433    0.0000 </r>
       <r>    4.6190    0.0000 </r>
       <r>    4.6387    0.0000 </r>
       <r>    4.6387    0.0000 </r>
      </set>
      <set comment="kpoint 42">
       <r>   -7.7691    1.0000 </r>
       <r>   -6.8233    1.0000 </r>
       <r>   -6.3045    1.0000 </r>
       <r>   -6.0147    1.0000 </r>
       <r>   -3.8158    1.0000 </r>
       <r>   -3.4912    1.0000 </r>
       <r>   -2.8823    1.0000 </r>
       <r>   -1.6413    1.0000 </r>
       <r>   -0.6279    1.0000 </r>
       <r>   -0.3166    1.0000 </r>
       <r>    0.2678    0.9997 </r>
       <r>    1.0156    0.0327 </r>
       <r>    1.1342    0.0037 </r>
       <r>    1.2642    0.0002 </r>
       <r>    1.7789    0.0000 </r>
       <r>    2.4988    0.0000 </r>
       <r>    4.7675    0.0000 </r>
       <r>    4.8833    0.0000 </r>
       <r>    4.8851    0.0000 </r>
       <r>    5.1889    0.0000 </r>
      </set>
      <set comment="kpoint 43">
       <r>   -7.5000    1.0000 </r>
       <r>   -7.1832    1.0000 </r>
       <r>   -6.1796    1.0000 </r>
       <r>   -6.0765    1.0000 </r>
       <r>   -3.8038    1.0000 </r>
       <r>   -3.6893    1.0000 </r>
       <r>   -2.5015    1.0000 </r>
       <r>   -2.0893    1.0000 </r>
       <r>   -0.5133    1.0000 </r>
       <r>   -0.3997    1.0000 </r>
       <r>    0.8170    0.3307 </r>
       <r>    1.0479    0.0192 </r>
       <r>    1.1059    0.0066 </r>
       <r>    1.3258    0.0000 </r>
       <r>    1.6147    0.0000 </r>
       <r>    2.0487    0.0000 </r>
       <r>    5.1249    0.0000 </r>
       <r>    5.1759    0.0000 </r>
       <r>    5.3600    0.0000 </r>
       <r>    5.8674    0.0000 </r>
      </set>
      <set comment="kpoint 44">
       <r>   -7.5582    1.0000 </r>
       <r>   -6.6627    1.0000 </r>
       <r>   -6.6627    1.0000 </r>
       <r>   -6.1347    1.0000 </r>
       <r>   -3.8100    1.0000 </r>
       <r>   -3.2108    1.0000 </r>
       <r>   -3.2108    1.0000 </r>
       <r>   -2.0990    1.0000 </r>
       <r>   -0.4571    1.0000 </r>
       <r>    0.1424    1.0000 </r>
       <r>    0.1424    1.0000 </r>
       <r>    1.3796    0.0000 </r>
       <r>    1.3796    0.0000 </r>
       <r>    1.3968    0.0000 </r>
       <r>    1.4138    0.0000 </r>
       <r>    2.5539    0.0000 </r>
       <r>    4.7865    0.0000 </r>
       <r>    4.8809    0.0000 </r>
       <r>    5.3758    0.0000 </r>
       <r>    5.3758    0.0000 </r>
      </set>
      <set comment="kpoint 45">
       <r>   -7.2996    1.0000 </r>
       <r>   -6.9987    1.0000 </r>
       <r>   -6.4815    1.0000 </r>
       <r>   -6.2977    1.0000 </r>
       <r>   -3.6980    1.0000 </r>
       <r>   -3.4911    1.0000 </r>
       <r>   -2.8862    1.0000 </r>
       <r>   -2.5155    1.0000 </r>
       <r>   -0.2560    1.0000 </r>
       <r>   -0.0456    1.0000 </r>
       <r>    0.5824    0.8889 </r>
       <r>    0.9976    0.0431 </r>
       <r>    1.4834    0.0000 </r>
       <r>    1.5206    0.0000 </r>
       <r>    1.8233    0.0000 </r>
       <r>    2.2671    0.0000 </r>
       <r>    5.1084    0.0000 </r>
       <r>    5.1381    0.0000 </r>
       <r>    5.4039    0.0000 </r>
       <r>    5.6070    0.0000 </r>
      </set>
      <set comment="kpoint 46">
       <r>   -7.0573    1.0000 </r>
       <r>   -6.7805    1.0000 </r>
       <r>   -6.7805    1.0000 </r>
       <r>   -6.5407    1.0000 </r>
       <r>   -3.5001    1.0000 </r>
       <r>   -3.2244    1.0000 </r>
       <r>   -3.2244    1.0000 </r>
       <r>   -2.8970    1.0000 </r>
       <r>    0.0180    1.0000 </r>
       <r>    0.3030    0.9993 </r>
       <r>    0.3030    0.9993 </r>
       <r>    0.6510    0.7688 </r>
       <r>    1.8226    0.0000 </r>
       <r>    1.9194    0.0000 </r>
       <r>    1.9194    0.0000 </r>
       <r>    2.2224    0.0000 </r>
       <r>    5.0863    0.0000 </r>
       <r>    5.1304    0.0000 </r>
       <r>    5.2945    0.0000 </r>
       <r>    5.2945    0.0000 </r>
      </set>
      <set comment="kpoint 47">
       <r>   -7.8262    1.0000 </r>
       <r>   -6.3564    1.0000 </r>
       <r>   -6.3564    1.0000 </r>
       <r>   -6.3564    1.0000 </r>
       <r>   -3.5038    1.0000 </r>
       <r>   -3.5038    1.0000 </r>
       <r>   -3.5038    1.0000 </r>
       <r>   -1.6551    1.0000 </r>
       <r>   -0.1621    1.0000 </r>
       <r>   -0.1621    1.0000 </r>
       <r>   -0.1621    1.0000 </r>
       <r>    1.2030    0.0008 </r>
       <r>    1.2030    0.0008 </r>
       <r>    1.2030    0.0008 </r>
       <r>    2.4992    0.0000 </r>
       <r>    2.4992    0.0000 </r>
       <r>    4.3115    0.0000 </r>
       <r>    4.6408    0.0000 </r>
       <r>    4.6408    0.0000 </r>
       <r>    4.6408    0.0000 </r>
      </set>
      <set comment="kpoint 48">
       <r>   -7.6145    1.0000 </r>
       <r>   -6.7157    1.0000 </r>
       <r>   -6.2875    1.0000 </r>
       <r>   -6.2875    1.0000 </r>
       <r>   -3.7173    1.0000 </r>
       <r>   -3.7173    1.0000 </r>
       <r>   -3.2302    1.0000 </r>
       <r>   -2.1186    1.0000 </r>
       <r>   -0.0648    1.0000 </r>
       <r>   -0.0648    1.0000 </r>
       <r>    0.4627    0.9806 </r>
       <r>    1.3028    0.0001 </r>
       <r>    1.3028    0.0001 </r>
       <r>    1.4045    0.0000 </r>
       <r>    2.2085    0.0000 </r>
       <r>    2.3050    0.0000 </r>
       <r>    4.4782    0.0000 </r>
       <r>    4.8663    0.0000 </r>
       <r>    4.9353    0.0000 </r>
       <r>    4.9353    0.0000 </r>
      </set>
      <set comment="kpoint 49">
       <r>   -7.3550    1.0000 </r>
       <r>   -7.0528    1.0000 </r>
       <r>   -6.2440    1.0000 </r>
       <r>   -6.2440    1.0000 </r>
       <r>   -3.8375    1.0000 </r>
       <r>   -3.8375    1.0000 </r>
       <r>   -2.9085    1.0000 </r>
       <r>   -2.5382    1.0000 </r>
       <r>   -0.0029    1.0000 </r>
       <r>   -0.0029    1.0000 </r>
       <r>    1.1221    0.0047 </r>
       <r>    1.3245    0.0000 </r>
       <r>    1.3245    0.0000 </r>
       <r>    1.6458    0.0000 </r>
       <r>    1.7664    0.0000 </r>
       <r>    1.9184    0.0000 </r>
       <r>    4.8649    0.0000 </r>
       <r>    5.0176    0.0000 </r>
       <r>    5.4464    0.0000 </r>
       <r>    5.4464    0.0000 </r>
      </set>
      <set comment="kpoint 50">
       <r>   -7.4126    1.0000 </r>
       <r>   -6.5894    1.0000 </r>
       <r>   -6.5894    1.0000 </r>
       <r>   -6.3007    1.0000 </r>
       <r>   -3.8565    1.0000 </r>
       <r>   -3.5345    1.0000 </r>
       <r>   -3.5345    1.0000 </r>
       <r>   -2.5586    1.0000 </r>
       <r>    0.1615    1.0000 </r>
       <r>    0.5377    0.9378 </r>
       <r>    0.5377    0.9378 </r>
       <r>    1.5320    0.0000 </r>
       <r>    1.5320    0.0000 </r>
       <r>    1.5389    0.0000 </r>
       <r>    1.9528    0.0000 </r>
       <r>    2.4213    0.0000 </r>
       <r>    4.3841    0.0000 </r>
       <r>    4.9151    0.0000 </r>
       <r>    5.0795    0.0000 </r>
       <r>    5.0795    0.0000 </r>
      </set>
      <set comment="kpoint 51">
       <r>   -7.1685    1.0000 </r>
       <r>   -6.8899    1.0000 </r>
       <r>   -6.4630    1.0000 </r>
       <r>   -6.3601    1.0000 </r>
       <r>   -3.8721    1.0000 </r>
       <r>   -3.7584    1.0000 </r>
       <r>   -3.2746    1.0000 </r>
       <r>   -2.9467    1.0000 </r>
       <r>    0.3541    0.9977 </r>
       <r>    0.4914    0.9688 </r>
       <r>    1.1107    0.0059 </r>
       <r>    1.5850    0.0000 </r>
       <r>    1.6233    0.0000 </r>
       <r>    1.6439    0.0000 </r>
       <r>    1.8310    0.0000 </r>
       <r>    2.1833    0.0000 </r>
       <r>    4.6726    0.0000 </r>
       <r>    5.0142    0.0000 </r>
       <r>    5.1353    0.0000 </r>
       <r>    5.3251    0.0000 </r>
      </set>
      <set comment="kpoint 52">
       <r>   -6.9482    1.0000 </r>
       <r>   -6.7066    1.0000 </r>
       <r>   -6.7066    1.0000 </r>
       <r>   -6.5217    1.0000 </r>
       <r>   -3.7793    1.0000 </r>
       <r>   -3.5725    1.0000 </r>
       <r>   -3.5725    1.0000 </r>
       <r>   -3.2965    1.0000 </r>
       <r>    0.6619    0.7448 </r>
       <r>    0.9216    0.1193 </r>
       <r>    0.9216    0.1193 </r>
       <r>    1.2823    0.0001 </r>
       <r>    1.8951    0.0000 </r>
       <r>    1.9629    0.0000 </r>
       <r>    1.9629    0.0000 </r>
       <r>    2.2103    0.0000 </r>
       <r>    4.7187    0.0000 </r>
       <r>    4.9891    0.0000 </r>
       <r>    4.9943    0.0000 </r>
       <r>    4.9943    0.0000 </r>
      </set>
      <set comment="kpoint 53">
       <r>   -7.2255    1.0000 </r>
       <r>   -6.5190    1.0000 </r>
       <r>   -6.5190    1.0000 </r>
       <r>   -6.5190    1.0000 </r>
       <r>   -3.7853    1.0000 </r>
       <r>   -3.7853    1.0000 </r>
       <r>   -3.7853    1.0000 </r>
       <r>   -2.9734    1.0000 </r>
       <r>    0.8246    0.3112 </r>
       <r>    0.8246    0.3112 </r>
       <r>    0.8246    0.3112 </r>
       <r>    1.6964    0.0000 </r>
       <r>    1.6964    0.0000 </r>
       <r>    1.6964    0.0000 </r>
       <r>    2.2536    0.0000 </r>
       <r>    2.2536    0.0000 </r>
       <r>    4.1063    0.0000 </r>
       <r>    4.9488    0.0000 </r>
       <r>    4.9488    0.0000 </r>
       <r>    4.9488    0.0000 </r>
      </set>
      <set comment="kpoint 54">
       <r>   -7.0046    1.0000 </r>
       <r>   -6.7626    1.0000 </r>
       <r>   -6.4745    1.0000 </r>
       <r>   -6.4745    1.0000 </r>
       <r>   -3.9230    1.0000 </r>
       <r>   -3.9230    1.0000 </r>
       <r>   -3.6028    1.0000 </r>
       <r>   -3.3265    1.0000 </r>
       <r>    0.9700    0.0642 </r>
       <r>    0.9700    0.0642 </r>
       <r>    1.4803    0.0000 </r>
       <r>    1.8045    0.0000 </r>
       <r>    1.8045    0.0000 </r>
       <r>    1.8765    0.0000 </r>
       <r>    2.0347    0.0000 </r>
       <r>    2.0674    0.0000 </r>
       <r>    4.2990    0.0000 </r>
       <r>    4.7089    0.0000 </r>
       <r>    4.9511    0.0000 </r>
       <r>    4.9512    0.0000 </r>
      </set>
      <set comment="kpoint 55">
       <r>   -6.8205    1.0000 </r>
       <r>   -6.6355    1.0000 </r>
       <r>   -6.6355    1.0000 </r>
       <r>   -6.5328    1.0000 </r>
       <r>   -3.9508    1.0000 </r>
       <r>   -3.8376    1.0000 </r>
       <r>   -3.8376    1.0000 </r>
       <r>   -3.6312    1.0000 </r>
       <r>    1.3137    0.0000 </r>
       <r>    1.5021    0.0000 </r>
       <r>    1.5021    0.0000 </r>
       <r>    1.8503    0.0000 </r>
       <r>    1.9785    0.0000 </r>
       <r>    2.0064    0.0000 </r>
       <r>    2.0064    0.0000 </r>
       <r>    2.1813    0.0000 </r>
       <r>    4.2520    0.0000 </r>
       <r>    4.5659    0.0000 </r>
       <r>    4.5659    0.0000 </r>
       <r>    4.6602    0.0000 </r>
      </set>
      <set comment="kpoint 56">
       <r>   -6.6933    1.0000 </r>
       <r>   -6.5907    1.0000 </r>
       <r>   -6.5907    1.0000 </r>
       <r>   -6.5907    1.0000 </r>
       <r>   -3.9822    1.0000 </r>
       <r>   -3.9822    1.0000 </r>
       <r>   -3.9822    1.0000 </r>
       <r>   -3.8693    1.0000 </r>
       <r>    1.8804    0.0000 </r>
       <r>    1.8804    0.0000 </r>
       <r>    1.8804    0.0000 </r>
       <r>    2.0604    0.0000 </r>
       <r>    2.0604    0.0000 </r>
       <r>    2.0604    0.0000 </r>
       <r>    2.1306    0.0000 </r>
       <r>    2.1306    0.0000 </r>
       <r>    4.0043    0.0000 </r>
       <r>    4.2237    0.0000 </r>
       <r>    4.2237    0.0000 </r>
       <r>    4.2237    0.0000 </r>
      </set>
     </set>
    </set>
   </array>
  </eigenvalues>
  <separator name="orbital magnetization" >
   <v name="MAGDIPOLOUT">      0.00000000      0.00000000      0.00000000</v>
  </separator>
  <dos>
   <i name="efermi">      0.75499695 </i>
   <total>
    <array>
     <dimension dim="1">gridpoints</dimension>
     <dimension dim="2">spin</dimension>
     <field>energy</field>
     <field>total</field>
     <field>integrated</field>
     <set>
      <set comment="spin 1">
       <r>   -10.8340     0.0000     0.0000 </r>
       <r>   -10.7703     0.0000     0.0000 </r>
       <r>   -10.7065     0.0000     0.0000 </r>
       <r>   -10.6427     0.0000     0.0000 </r>
       <r>   -10.5789     0.0000     0.0000 </r>
       <r>   -10.5151     0.0000     0.0000 </r>
       <r>   -10.4514     0.0000     0.0000 </r>
       <r>   -10.3876     0.0000     0.0000 </r>
       <r>   -10.3238     0.0000     0.0000 </r>
       <r>   -10.2600     0.0000     0.0000 </r>
       <r>   -10.1962     0.0000     0.0000 </r>
       <r>   -10.1324     0.0000     0.0000 </r>
       <r>   -10.0687     0.0000     0.0000 </r>
       <r>   -10.0049     0.0000     0.0000 </r>
       <r>    -9.9411     0.0000     0.0000 </r>
       <r>    -9.8773     0.0000     0.0000 </r>
       <r>    -9.8135     0.0000     0.0000 </r>
       <r>    -9.7498     0.0000     0.0000 </r>
       <r>    -9.6860     0.0000     0.0000 </r>
       <r>    -9.6222     0.0000     0.0000 </r>
       <r>    -9.5584     0.0000     0.0000 </r>
       <r>    -9.4946     0.0000     0.0000 </r>
       <r>    -9.4309     0.0000     0.0000 </r>
       <r>    -9.3671     0.0000     0.0000 </r>
       <r>    -9.3033     0.0001     0.0000 </r>
       <r>    -9.2395     0.0005     0.0000 </r>
       <r>    -9.1757     0.0019     0.0002 </r>
       <r>    -9.1119     0.0066     0.0006 </r>
       <r>    -9.0482     0.0191     0.0018 </r>
       <r>    -8.9844     0.0467     0.0048 </r>
       <r>    -8.9206     0.0979     0.0110 </r>
       <r>    -8.8568     0.1782     0.0224 </r>
       <r>    -8.7930     0.2855     0.0406 </r>
       <r>    -8.7293     0.4101     0.0668 </r>
       <r>    -8.6655     0.5384     0.1011 </r>
       <r>    -8.6017     0.6597     0.1432 </r>
       <r>    -8.5379     0.7688     0.1922 </r>
       <r>    -8.4741     0.8652     0.2474 </r>
       <r>    -8.4103     0.9513     0.3081 </r>
       <r>    -8.3466     1.0305     0.3738 </r>
       <r>    -8.2828     1.1056     0.4443 </r>
       <r>    -8.2190     1.1765     0.5193 </r>
       <r>    -8.1552     1.2418     0.5985 </r>
       <r>    -8.0914     1.3033     0.6817 </r>
       <r>    -8.0277     1.3665     0.7688 </r>
       <r>    -7.9639     1.4334     0.8603 </r>
       <r>    -7.9001     1.4977     0.9558 </r>
       <r>    -7.8363     1.5525     1.0548 </r>
       <r>    -7.7725     1.6012     1.1569 </r>
       <r>    -7.7088     1.6561     1.2625 </r>
       <r>    -7.6450     1.7237     1.3725 </r>
       <r>    -7.5812     1.7961     1.4870 </r>
       <r>    -7.5174     1.8597     1.6057 </r>
       <r>    -7.4536     1.9089     1.7274 </r>
       <r>    -7.3898     1.9510     1.8518 </r>
       <r>    -7.3261     2.0022     1.9796 </r>
       <r>    -7.2623     2.0764     2.1120 </r>
       <r>    -7.1985     2.1716     2.2505 </r>
       <r>    -7.1347     2.2670     2.3951 </r>
       <r>    -7.0709     2.3397     2.5443 </r>
       <r>    -7.0072     2.3903     2.6968 </r>
       <r>    -6.9434     2.4481     2.8529 </r>
       <r>    -6.8796     2.5464     3.0153 </r>
       <r>    -6.8158     2.6960     3.1873 </r>
       <r>    -6.7520     2.8795     3.3709 </r>
       <r>    -6.6882     3.0669     3.5666 </r>
       <r>    -6.6245     3.2277     3.7724 </r>
       <r>    -6.5607     3.3345     3.9851 </r>
       <r>    -6.4969     3.3721     4.2002 </r>
       <r>    -6.4331     3.3548     4.4142 </r>
       <r>    -6.3693     3.3204     4.6259 </r>
       <r>    -6.3056     3.2959     4.8362 </r>
       <r>    -6.2418     3.2733     5.0449 </r>
       <r>    -6.1780     3.2283     5.2508 </r>
       <r>    -6.1142     3.1497     5.4517 </r>
       <r>    -6.0504     3.0373     5.6455 </r>
       <r>    -5.9867     2.8887     5.8297 </r>
       <r>    -5.9229     2.7109     6.0026 </r>
       <r>    -5.8591     2.5450     6.1649 </r>
       <r>    -5.7953     2.4526     6.3214 </r>
       <r>    -5.7315     2.4587     6.4782 </r>
       <r>    -5.6677     2.5116     6.6384 </r>
       <r>    -5.6040     2.5120     6.7986 </r>
       <r>    -5.5402     2.3876     6.9509 </r>
       <r>    -5.4764     2.1447     7.0877 </r>
       <r>    -5.4126     1.8602     7.2063 </r>
       <r>    -5.3488     1.6325     7.3104 </r>
       <r>    -5.2851     1.5268     7.4078 </r>
       <r>    -5.2213     1.5387     7.5060 </r>
       <r>    -5.1575     1.5935     7.6076 </r>
       <r>    -5.0937     1.5877     7.7089 </r>
       <r>    -5.0299     1.4518     7.8015 </r>
       <r>    -4.9661     1.1885     7.8773 </r>
       <r>    -4.9024     0.8634     7.9323 </r>
       <r>    -4.8386     0.5640     7.9683 </r>
       <r>    -4.7748     0.3640     7.9915 </r>
       <r>    -4.7110     0.3108     8.0113 </r>
       <r>    -4.6472     0.4229     8.0383 </r>
       <r>    -4.5835     0.6797     8.0817 </r>
       <r>    -4.5197     1.0069     8.1459 </r>
       <r>    -4.4559     1.2902     8.2282 </r>
       <r>    -4.3921     1.4349     8.3197 </r>
       <r>    -4.3283     1.4309     8.4110 </r>
       <r>    -4.2646     1.3669     8.4982 </r>
       <r>    -4.2008     1.3860     8.5866 </r>
       <r>    -4.1370     1.6234     8.6901 </r>
       <r>    -4.0732     2.1548     8.8275 </r>
       <r>    -4.0094     2.9494     9.0157 </r>
       <r>    -3.9456     3.8444     9.2609 </r>
       <r>    -3.8819     4.5880     9.5535 </r>
       <r>    -3.8181     4.9627     9.8700 </r>
       <r>    -3.7543     4.9103    10.1832 </r>
       <r>    -3.6905     4.5519    10.4735 </r>
       <r>    -3.6267     4.0864    10.7342 </r>
       <r>    -3.5630     3.6632    10.9678 </r>
       <r>    -3.4992     3.3370    11.1807 </r>
       <r>    -3.4354     3.1101    11.3790 </r>
       <r>    -3.3716     2.9743    11.5687 </r>
       <r>    -3.3078     2.8984    11.7536 </r>
       <r>    -3.2440     2.8077    11.9327 </r>
       <r>    -3.1803     2.6314    12.1005 </r>
       <r>    -3.1165     2.3805    12.2523 </r>
       <r>    -3.0527     2.1493    12.3894 </r>
       <r>    -2.9889     2.0177    12.5181 </r>
       <r>    -2.9251     1.9666    12.6435 </r>
       <r>    -2.8614     1.9096    12.7653 </r>
       <r>    -2.7976     1.7998    12.8801 </r>
       <r>    -2.7338     1.6862    12.9877 </r>
       <r>    -2.6700     1.6539    13.0932 </r>
       <r>    -2.6062     1.7171    13.2027 </r>
       <r>    -2.5424     1.7866    13.3166 </r>
       <r>    -2.4787     1.7491    13.4282 </r>
       <r>    -2.4149     1.5772    13.5288 </r>
       <r>    -2.3511     1.3572    13.6154 </r>
       <r>    -2.2873     1.2117    13.6926 </r>
       <r>    -2.2235     1.1977    13.7690 </r>
       <r>    -2.1598     1.2684    13.8499 </r>
       <r>    -2.0960     1.3207    13.9342 </r>
       <r>    -2.0322     1.2808    14.0159 </r>
       <r>    -1.9684     1.1618    14.0900 </r>
       <r>    -1.9046     1.0468    14.1567 </r>
       <r>    -1.8409     1.0130    14.2213 </r>
       <r>    -1.7771     1.0665    14.2894 </r>
       <r>    -1.7133     1.1415    14.3622 </r>
       <r>    -1.6495     1.1630    14.4364 </r>
       <r>    -1.5857     1.1180    14.5077 </r>
       <r>    -1.5219     1.0778    14.5764 </r>
       <r>    -1.4582     1.1542    14.6500 </r>
       <r>    -1.3944     1.4281    14.7411 </r>
       <r>    -1.3306     1.9053    14.8626 </r>
       <r>    -1.2668     2.5194    15.0233 </r>
       <r>    -1.2030     3.1589    15.2248 </r>
       <r>    -1.1393     3.6991    15.4607 </r>
       <r>    -1.0755     4.0448    15.7187 </r>
       <r>    -1.0117     4.1782    15.9852 </r>
       <r>    -0.9479     4.1710    16.2512 </r>
       <r>    -0.8841     4.1318    16.5148 </r>
       <r>    -0.8203     4.1283    16.7781 </r>
       <r>    -0.7566     4.1520    17.0429 </r>
       <r>    -0.6928     4.1477    17.3075 </r>
       <r>    -0.6290     4.0743    17.5673 </r>
       <r>    -0.5652     3.9460    17.8190 </r>
       <r>    -0.5014     3.8271    18.0631 </r>
       <r>    -0.4377     3.7912    18.3049 </r>
       <r>    -0.3739     3.8720    18.5519 </r>
       <r>    -0.3101     4.0377    18.8094 </r>
       <r>    -0.2463     4.2086    19.0778 </r>
       <r>    -0.1825     4.3138    19.3530 </r>
       <r>    -0.1188     4.3433    19.6300 </r>
       <r>    -0.0550     4.3463    19.9072 </r>
       <r>     0.0088     4.3844    20.1868 </r>
       <r>     0.0726     4.4934    20.4734 </r>
       <r>     0.1364     4.6793    20.7719 </r>
       <r>     0.2002     4.9244    21.0860 </r>
       <r>     0.2639     5.1862    21.4168 </r>
       <r>     0.3277     5.4025    21.7613 </r>
       <r>     0.3915     5.5133    22.1130 </r>
       <r>     0.4553     5.4909    22.4632 </r>
       <r>     0.5191     5.3572    22.8049 </r>
       <r>     0.5828     5.1794    23.1352 </r>
       <r>     0.6466     5.0408    23.4567 </r>
       <r>     0.7104     4.9982    23.7755 </r>
       <r>     0.7742     5.0452    24.0973 </r>
       <r>     0.8380     5.1122    24.4234 </r>
       <r>     0.9018     5.1134    24.7495 </r>
       <r>     0.9655     5.0068    25.0689 </r>
       <r>     1.0293     4.8214    25.3764 </r>
       <r>     1.0931     4.6357    25.6721 </r>
       <r>     1.1569     4.5248    25.9607 </r>
       <r>     1.2207     4.5097    26.2483 </r>
       <r>     1.2844     4.5468    26.5383 </r>
       <r>     1.3482     4.5658    26.8295 </r>
       <r>     1.4120     4.5222    27.1179 </r>
       <r>     1.4758     4.4202    27.3999 </r>
       <r>     1.5396     4.2946    27.6738 </r>
       <r>     1.6033     4.1814    27.9405 </r>
       <r>     1.6671     4.1004    28.2020 </r>
       <r>     1.7309     4.0540    28.4606 </r>
       <r>     1.7947     4.0274    28.7175 </r>
       <r>     1.8585     3.9899    28.9719 </r>
       <r>     1.9223     3.9089    29.2213 </r>
       <r>     1.9860     3.7764    29.4621 </r>
       <r>     2.0498     3.6127    29.6926 </r>
       <r>     2.1136     3.4380    29.9118 </r>
       <r>     2.1774     3.2427    30.1187 </r>
       <r>     2.2412     2.9985    30.3099 </r>
       <r>     2.3049     2.7004    30.4821 </r>
       <r>     2.3687     2.3899    30.6346 </r>
       <r>     2.4325     2.1283    30.7703 </r>
       <r>     2.4963     1.9486    30.8946 </r>
       <r>     2.5601     1.8353    31.0117 </r>
       <r>     2.6239     1.7448    31.1229 </r>
       <r>     2.6876     1.6402    31.2276 </r>
       <r>     2.7514     1.5106    31.3239 </r>
       <r>     2.8152     1.3664    31.4111 </r>
       <r>     2.8790     1.2251    31.4892 </r>
       <r>     2.9428     1.1002    31.5594 </r>
       <r>     3.0065     0.9965    31.6229 </r>
       <r>     3.0703     0.9111    31.6810 </r>
       <r>     3.1341     0.8390    31.7346 </r>
       <r>     3.1979     0.7769    31.7841 </r>
       <r>     3.2617     0.7232    31.8302 </r>
       <r>     3.3254     0.6783    31.8735 </r>
       <r>     3.3892     0.6480    31.9148 </r>
       <r>     3.4530     0.6433    31.9559 </r>
       <r>     3.5168     0.6727    31.9988 </r>
       <r>     3.5806     0.7369    32.0458 </r>
       <r>     3.6444     0.8352    32.0990 </r>
       <r>     3.7081     0.9700    32.1609 </r>
       <r>     3.7719     1.1388    32.2335 </r>
       <r>     3.8357     1.3217    32.3178 </r>
       <r>     3.8995     1.4868    32.4127 </r>
       <r>     3.9633     1.6129    32.5155 </r>
       <r>     4.0270     1.7100    32.6246 </r>
       <r>     4.0908     1.8203    32.7407 </r>
       <r>     4.1546     1.9896    32.8676 </r>
       <r>     4.2184     2.2252    33.0095 </r>
       <r>     4.2822     2.4826    33.1679 </r>
       <r>     4.3460     2.7071    33.3406 </r>
       <r>     4.4097     2.8926    33.5250 </r>
       <r>     4.4735     3.0831    33.7217 </r>
       <r>     4.5373     3.3070    33.9326 </r>
       <r>     4.6011     3.5300    34.1578 </r>
       <r>     4.6649     3.6994    34.3937 </r>
       <r>     4.7286     3.8268    34.6378 </r>
       <r>     4.7924     3.9961    34.8927 </r>
       <r>     4.8562     4.2756    35.1654 </r>
       <r>     4.9200     4.6403    35.4614 </r>
       <r>     4.9838     4.9900    35.7796 </r>
       <r>     5.0475     5.2244    36.1128 </r>
       <r>     5.1113     5.2949    36.4506 </r>
       <r>     5.1751     5.2132    36.7831 </r>
       <r>     5.2389     5.0347    37.1042 </r>
       <r>     5.3027     4.8176    37.4115 </r>
       <r>     5.3665     4.5752    37.7033 </r>
       <r>     5.4302     4.2798    37.9762 </r>
       <r>     5.4940     3.9230    38.2265 </r>
       <r>     5.5578     3.5488    38.4528 </r>
       <r>     5.6216     3.2146    38.6578 </r>
       <r>     5.6854     2.9362    38.8451 </r>
       <r>     5.7491     2.6837    39.0163 </r>
       <r>     5.8129     2.4193    39.1706 </r>
       <r>     5.8767     2.1355    39.3068 </r>
       <r>     5.9405     1.8641    39.4257 </r>
       <r>     6.0043     1.6496    39.5309 </r>
       <r>     6.0681     1.5058    39.6270 </r>
       <r>     6.1318     1.3985    39.7162 </r>
       <r>     6.1956     1.2708    39.7972 </r>
       <r>     6.2594     1.0851    39.8664 </r>
       <r>     6.3232     0.8444    39.9203 </r>
       <r>     6.3870     0.5852    39.9576 </r>
       <r>     6.4507     0.3546    39.9802 </r>
       <r>     6.5145     0.1850    39.9920 </r>
       <r>     6.5783     0.0820    39.9972 </r>
       <r>     6.6421     0.0306    39.9992 </r>
       <r>     6.7059     0.0095    39.9998 </r>
       <r>     6.7697     0.0025    40.0000 </r>
       <r>     6.8334     0.0005    40.0000 </r>
       <r>     6.8972     0.0001    40.0000 </r>
       <r>     6.9610     0.0000    40.0000 </r>
       <r>     7.0248     0.0000    40.0000 </r>
       <r>     7.0886     0.0000    40.0000 </r>
       <r>     7.1523     0.0000    40.0000 </r>
       <r>     7.2161     0.0000    40.0000 </r>
       <r>     7.2799     0.0000    40.0000 </r>
       <r>     7.3437     0.0000    40.0000 </r>
       <r>     7.4075     0.0000    40.0000 </r>
       <r>     7.4712     0.0000    40.0000 </r>
       <r>     7.5350     0.0000    40.0000 </r>
       <r>     7.5988     0.0000    40.0000 </r>
       <r>     7.6626     0.0000    40.0000 </r>
       <r>     7.7264     0.0000    40.0000 </r>
       <r>     7.7902     0.0000    40.0000 </r>
       <r>     7.8539     0.0000    40.0000 </r>
       <r>     7.9177     0.0000    40.0000 </r>
       <r>     7.9815     0.0000    40.0000 </r>
       <r>     8.0453     0.0000    40.0000 </r>
       <r>     8.1091     0.0000    40.0000 </r>
       <r>     8.1728     0.0000    40.0000 </r>
       <r>     8.2366     0.0000    40.0000 </r>
       <r>     8.3004     0.0000    40.0000 </r>
      </set>
     </set>
    </array>
   </total>
  </dos>
 </calculation>
 <structure name="finalpos" >
  <crystal>
   <varray name="basis" >
    <v>       5.76286300       0.00000000       0.00000000 </v>
    <v>       0.00000000       5.76286300       0.00000000 </v>
    <v>       0.00000000       0.00000000       5.76286300 </v>
   </varray>
   <i name="volume">    191.38808007 </i>
   <varray name="rec_basis" >
    <v>       0.17352486       0.00000000       0.00000000 </v>
    <v>       0.00000000       0.17352486       0.00000000 </v>
    <v>       0.00000000       0.00000000       0.17352486 </v>
   </varray>
  </crystal>
  <varray name="positions" >
   <v>       0.75000000       0.75000000       0.75000000 </v>
   <v>       0.50000000       0.00000000       0.00000000 </v>
   <v>       0.75000000       0.25000000       0.25000000 </v>
   <v>       0.50000000       0.50000000       0.50000000 </v>
   <v>       0.25000000       0.75000000       0.25000000 </v>
   <v>       0.00000000       0.00000000       0.50000000 </v>
   <v>       0.25000000       0.25000000       0.75000000 </v>
   <v>       0.00000000       0.50000000       0.00000000 </v>
  </varray>
 </structure>
</modeling>
