   8   8   0   0
  0.2392351E+02  0.5762863E-09  0.5762863E-09  0.5762863E-09  0.5000000E-15
  1.000000000000000E-004
  CAR 
 unknown system                          
      8.20441522    -10.76980719  301      0.73050260      1.00000000
    -10.770  0.0000E+00  0.0000E+00
    -10.707  0.0000E+00  0.0000E+00
    -10.643  0.0000E+00  0.0000E+00
    -10.580  0.0000E+00  0.0000E+00
    -10.517  0.0000E+00  0.0000E+00
    -10.454  0.0000E+00  0.0000E+00
    -10.390  0.0000E+00  0.0000E+00
    -10.327  0.0000E+00  0.0000E+00
    -10.264  0.0000E+00  0.0000E+00
    -10.201  0.0000E+00  0.0000E+00
    -10.137  0.0000E+00  0.0000E+00
    -10.074  0.0000E+00  0.0000E+00
    -10.011  0.0000E+00  0.0000E+00
     -9.948  0.6501E-16  0.4112E-17
     -9.884  0.1820E-14  0.1192E-15
     -9.821  0.5994E-13  0.3910E-14
     -9.758  0.1588E-11  0.1044E-12
     -9.695  0.3455E-10  0.2289E-11
     -9.631  0.6166E-09  0.4129E-10
     -9.568  0.9030E-08  0.6124E-09
     -9.505  0.1085E-06  0.7478E-08
     -9.442  0.1071E-05  0.7522E-07
     -9.378  0.8677E-05  0.6240E-06
     -9.315  0.5772E-04  0.4275E-05
     -9.252  0.3155E-03  0.2423E-04
     -9.189  0.1418E-02  0.1139E-03
     -9.125  0.5245E-02  0.4456E-03
     -9.062  0.1602E-01  0.1459E-02
     -8.999  0.4063E-01  0.4029E-02
     -8.936  0.8640E-01  0.9493E-02
     -8.872  0.1569E+00  0.1942E-01
     -8.809  0.2506E+00  0.3527E-01
     -8.746  0.3646E+00  0.5833E-01
     -8.683  0.4976E+00  0.8980E-01
     -8.619  0.6423E+00  0.1304E+00
     -8.556  0.7777E+00  0.1796E+00
     -8.493  0.8794E+00  0.2352E+00
     -8.430  0.9420E+00  0.2948E+00
     -8.366  0.9819E+00  0.3569E+00
     -8.303  0.1020E+01  0.4214E+00
     -8.240  0.1073E+01  0.4893E+00
     -8.177  0.1152E+01  0.5622E+00
     -8.113  0.1260E+01  0.6418E+00
     -8.050  0.1392E+01  0.7299E+00
     -7.987  0.1534E+01  0.8269E+00
     -7.924  0.1659E+01  0.9318E+00
     -7.860  0.1724E+01  0.1041E+01
     -7.797  0.1694E+01  0.1148E+01
     -7.734  0.1580E+01  0.1248E+01
     -7.671  0.1450E+01  0.1340E+01
     -7.607  0.1391E+01  0.1428E+01
     -7.544  0.1461E+01  0.1520E+01
     -7.481  0.1669E+01  0.1626E+01
     -7.418  0.1968E+01  0.1750E+01
     -7.354  0.2280E+01  0.1894E+01
     -7.291  0.2523E+01  0.2054E+01
     -7.228  0.2628E+01  0.2220E+01
     -7.165  0.2562E+01  0.2382E+01
     -7.101  0.2367E+01  0.2532E+01
     -7.038  0.2163E+01  0.2669E+01
     -6.975  0.2084E+01  0.2801E+01
     -6.912  0.2197E+01  0.2939E+01
     -6.848  0.2460E+01  0.3095E+01
     -6.785  0.2752E+01  0.3269E+01
     -6.722  0.2948E+01  0.3456E+01
     -6.659  0.2997E+01  0.3645E+01
     -6.595  0.2960E+01  0.3832E+01
     -6.532  0.2960E+01  0.4020E+01
     -6.469  0.3105E+01  0.4216E+01
     -6.406  0.3406E+01  0.4431E+01
     -6.342  0.3759E+01  0.4669E+01
     -6.279  0.4020E+01  0.4923E+01
     -6.216  0.4097E+01  0.5182E+01
     -6.153  0.3982E+01  0.5434E+01
     -6.089  0.3681E+01  0.5667E+01
     -6.026  0.3187E+01  0.5869E+01
     -5.963  0.2553E+01  0.6030E+01
     -5.900  0.1943E+01  0.6153E+01
     -5.837  0.1544E+01  0.6251E+01
     -5.773  0.1427E+01  0.6341E+01
     -5.710  0.1507E+01  0.6436E+01
     -5.647  0.1655E+01  0.6541E+01
     -5.584  0.1839E+01  0.6657E+01
     -5.520  0.2120E+01  0.6791E+01
     -5.457  0.2529E+01  0.6951E+01
     -5.394  0.2960E+01  0.7138E+01
     -5.331  0.3215E+01  0.7342E+01
     -5.267  0.3132E+01  0.7540E+01
     -5.204  0.2692E+01  0.7710E+01
     -5.141  0.2018E+01  0.7838E+01
     -5.078  0.1307E+01  0.7920E+01
     -5.014  0.7241E+00  0.7966E+01
     -4.951  0.3400E+00  0.7988E+01
     -4.888  0.1342E+00  0.7996E+01
     -4.825  0.4432E-01  0.7999E+01
     -4.761  0.1246E-01  0.8000E+01
     -4.698  0.4698E-02  0.8000E+01
     -4.635  0.1023E-01  0.8001E+01
     -4.572  0.4014E-01  0.8003E+01
     -4.508  0.1360E+00  0.8012E+01
     -4.445  0.3801E+00  0.8036E+01
     -4.382  0.8762E+00  0.8091E+01
     -4.319  0.1669E+01  0.8197E+01
     -4.255  0.2637E+01  0.8364E+01
     -4.192  0.3484E+01  0.8584E+01
     -4.129  0.3923E+01  0.8832E+01
     -4.066  0.3918E+01  0.9080E+01
     -4.002  0.3733E+01  0.9316E+01
     -3.939  0.3674E+01  0.9548E+01
     -3.876  0.3798E+01  0.9789E+01
     -3.813  0.3884E+01  0.1003E+02
     -3.749  0.3698E+01  0.1027E+02
     -3.686  0.3277E+01  0.1048E+02
     -3.623  0.2925E+01  0.1066E+02
     -3.560  0.2946E+01  0.1085E+02
     -3.496  0.3342E+01  0.1106E+02
     -3.433  0.3788E+01  0.1130E+02
     -3.370  0.3889E+01  0.1154E+02
     -3.307  0.3504E+01  0.1177E+02
     -3.243  0.2835E+01  0.1194E+02
     -3.180  0.2223E+01  0.1209E+02
     -3.117  0.1872E+01  0.1220E+02
     -3.054  0.1768E+01  0.1232E+02
     -2.990  0.1814E+01  0.1243E+02
     -2.927  0.1980E+01  0.1256E+02
     -2.864  0.2292E+01  0.1270E+02
     -2.801  0.2694E+01  0.1287E+02
     -2.737  0.2986E+01  0.1306E+02
     -2.674  0.2936E+01  0.1325E+02
     -2.611  0.2473E+01  0.1340E+02
     -2.548  0.1754E+01  0.1351E+02
     -2.484  0.1040E+01  0.1358E+02
     -2.421  0.5179E+00  0.1361E+02
     -2.358  0.2370E+00  0.1363E+02
     -2.295  0.1632E+00  0.1364E+02
     -2.231  0.2657E+00  0.1365E+02
     -2.168  0.5464E+00  0.1369E+02
     -2.105  0.1000E+01  0.1375E+02
     -2.042  0.1551E+01  0.1385E+02
     -1.978  0.2038E+01  0.1398E+02
     -1.915  0.2273E+01  0.1412E+02
     -1.852  0.2159E+01  0.1426E+02
     -1.789  0.1755E+01  0.1437E+02
     -1.725  0.1243E+01  0.1445E+02
     -1.662  0.8273E+00  0.1450E+02
     -1.599  0.6288E+00  0.1454E+02
     -1.536  0.6606E+00  0.1458E+02
     -1.472  0.8704E+00  0.1464E+02
     -1.409  0.1210E+01  0.1471E+02
     -1.346  0.1669E+01  0.1482E+02
     -1.283  0.2244E+01  0.1496E+02
     -1.219  0.2901E+01  0.1514E+02
     -1.156  0.3574E+01  0.1537E+02
     -1.093  0.4189E+01  0.1564E+02
     -1.030  0.4657E+01  0.1593E+02
     -0.966  0.4861E+01  0.1624E+02
     -0.903  0.4712E+01  0.1654E+02
     -0.840  0.4250E+01  0.1680E+02
     -0.777  0.3661E+01  0.1704E+02
     -0.713  0.3198E+01  0.1724E+02
     -0.650  0.3068E+01  0.1743E+02
     -0.587  0.3355E+01  0.1764E+02
     -0.524  0.3957E+01  0.1789E+02
     -0.460  0.4585E+01  0.1818E+02
     -0.397  0.4917E+01  0.1850E+02
     -0.334  0.4814E+01  0.1880E+02
     -0.271  0.4399E+01  0.1908E+02
     -0.207  0.3922E+01  0.1933E+02
     -0.144  0.3599E+01  0.1955E+02
     -0.081  0.3555E+01  0.1978E+02
     -0.018  0.3848E+01  0.2002E+02
      0.045  0.4421E+01  0.2030E+02
      0.109  0.5053E+01  0.2062E+02
      0.172  0.5439E+01  0.2097E+02
      0.235  0.5423E+01  0.2131E+02
      0.298  0.5159E+01  0.2163E+02
      0.362  0.5000E+01  0.2195E+02
      0.425  0.5173E+01  0.2228E+02
      0.488  0.5577E+01  0.2263E+02
      0.551  0.5898E+01  0.2300E+02
      0.615  0.5898E+01  0.2338E+02
      0.678  0.5579E+01  0.2373E+02
      0.741  0.5109E+01  0.2405E+02
      0.804  0.4695E+01  0.2435E+02
      0.868  0.4491E+01  0.2463E+02
      0.931  0.4520E+01  0.2492E+02
      0.994  0.4640E+01  0.2521E+02
      1.057  0.4651E+01  0.2551E+02
      1.121  0.4499E+01  0.2579E+02
      1.184  0.4314E+01  0.2606E+02
      1.247  0.4243E+01  0.2633E+02
      1.310  0.4284E+01  0.2660E+02
      1.374  0.4336E+01  0.2688E+02
      1.437  0.4370E+01  0.2715E+02
      1.500  0.4468E+01  0.2744E+02
      1.563  0.4696E+01  0.2773E+02
      1.627  0.4976E+01  0.2805E+02
      1.690  0.5125E+01  0.2837E+02
      1.753  0.5013E+01  0.2869E+02
      1.816  0.4660E+01  0.2898E+02
      1.880  0.4166E+01  0.2925E+02
      1.943  0.3604E+01  0.2948E+02
      2.006  0.3003E+01  0.2967E+02
      2.069  0.2429E+01  0.2982E+02
      2.133  0.2024E+01  0.2995E+02
      2.196  0.1927E+01  0.3007E+02
      2.259  0.2157E+01  0.3021E+02
      2.322  0.2568E+01  0.3037E+02
      2.386  0.2909E+01  0.3055E+02
      2.449  0.2989E+01  0.3074E+02
      2.512  0.2798E+01  0.3092E+02
      2.575  0.2474E+01  0.3107E+02
      2.639  0.2155E+01  0.3121E+02
      2.702  0.1874E+01  0.3133E+02
      2.765  0.1586E+01  0.3143E+02
      2.828  0.1261E+01  0.3151E+02
      2.892  0.9314E+00  0.3157E+02
      2.955  0.6726E+00  0.3161E+02
      3.018  0.5471E+00  0.3165E+02
      3.081  0.5558E+00  0.3168E+02
      3.145  0.6331E+00  0.3172E+02
      3.208  0.6939E+00  0.3177E+02
      3.271  0.6977E+00  0.3181E+02
      3.334  0.6711E+00  0.3185E+02
      3.398  0.6721E+00  0.3189E+02
      3.461  0.7377E+00  0.3194E+02
      3.524  0.8675E+00  0.3200E+02
      3.587  0.1034E+01  0.3206E+02
      3.651  0.1191E+01  0.3214E+02
      3.714  0.1282E+01  0.3222E+02
      3.777  0.1273E+01  0.3230E+02
      3.840  0.1201E+01  0.3237E+02
      3.904  0.1168E+01  0.3245E+02
      3.967  0.1262E+01  0.3253E+02
      4.030  0.1473E+01  0.3262E+02
      4.093  0.1699E+01  0.3273E+02
      4.157  0.1853E+01  0.3285E+02
      4.220  0.1961E+01  0.3297E+02
      4.283  0.2130E+01  0.3310E+02
      4.346  0.2422E+01  0.3326E+02
      4.410  0.2798E+01  0.3343E+02
      4.473  0.3192E+01  0.3364E+02
      4.536  0.3593E+01  0.3386E+02
      4.599  0.4015E+01  0.3412E+02
      4.663  0.4407E+01  0.3440E+02
      4.726  0.4683E+01  0.3469E+02
      4.789  0.4825E+01  0.3500E+02
      4.852  0.4920E+01  0.3531E+02
      4.916  0.5050E+01  0.3563E+02
      4.979  0.5170E+01  0.3596E+02
      5.042  0.5148E+01  0.3628E+02
      5.105  0.4929E+01  0.3659E+02
      5.169  0.4615E+01  0.3688E+02
      5.232  0.4363E+01  0.3716E+02
      5.295  0.4224E+01  0.3743E+02
      5.358  0.4132E+01  0.3769E+02
      5.422  0.4010E+01  0.3794E+02
      5.485  0.3827E+01  0.3818E+02
      5.548  0.3554E+01  0.3841E+02
      5.611  0.3172E+01  0.3861E+02
      5.675  0.2734E+01  0.3878E+02
      5.738  0.2356E+01  0.3893E+02
      5.801  0.2116E+01  0.3907E+02
      5.864  0.1983E+01  0.3919E+02
      5.928  0.1871E+01  0.3931E+02
      5.991  0.1750E+01  0.3942E+02
      6.054  0.1654E+01  0.3952E+02
      6.117  0.1612E+01  0.3963E+02
      6.180  0.1576E+01  0.3973E+02
      6.244  0.1452E+01  0.3982E+02
      6.307  0.1187E+01  0.3989E+02
      6.370  0.8299E+00  0.3995E+02
      6.433  0.4860E+00  0.3998E+02
      6.497  0.2361E+00  0.3999E+02
      6.560  0.9464E-01  0.4000E+02
      6.623  0.3123E-01  0.4000E+02
      6.686  0.8475E-02  0.4000E+02
      6.750  0.1890E-02  0.4000E+02
      6.813  0.3460E-03  0.4000E+02
      6.876  0.5204E-04  0.4000E+02
      6.939  0.6425E-05  0.4000E+02
      7.003  0.6512E-06  0.4000E+02
      7.066  0.5418E-07  0.4000E+02
      7.129  0.3699E-08  0.4000E+02
      7.192  0.2073E-09  0.4000E+02
      7.256  0.9530E-11  0.4000E+02
      7.319  0.3604E-12  0.4000E+02
      7.382  0.1092E-13  0.4000E+02
      7.445  0.0000E+00  0.4000E+02
      7.509  0.0000E+00  0.4000E+02
      7.572  0.0000E+00  0.4000E+02
      7.635  0.0000E+00  0.4000E+02
      7.698  0.0000E+00  0.4000E+02
      7.762  0.0000E+00  0.4000E+02
      7.825  0.0000E+00  0.4000E+02
      7.888  0.0000E+00  0.4000E+02
      7.951  0.0000E+00  0.4000E+02
      8.015  0.0000E+00  0.4000E+02
      8.078  0.0000E+00  0.4000E+02
      8.141  0.0000E+00  0.4000E+02
      8.204  0.0000E+00  0.4000E+02
