    8    8    1    1
  0.2392351E+02  0.5762863E-09  0.5762863E-09  0.5762863E-09  0.5000000E-15
  1.000000000000000E-004
  CAR 
 unknown system                          
   24   10   20
 
  0.8333333E-01  0.8333333E-01  0.8333333E-01  0.3703704E-01
   1       -8.769807
   2       -5.429292
   3       -5.429292
   4       -5.429292
   5       -4.183436
   6       -4.183436
   7       -4.183436
   8       -0.116219
   9       -0.116219
  10       -0.116219
  11        0.312272
  12        0.312272
  13        0.312272
  14        2.429743
  15        3.464044
  16        3.464044
  17        3.658617
  18        3.658618
  19        3.658619
  20        4.250745
 
  0.2500000E+00  0.8333333E-01  0.8333333E-01  0.1111111E+00
   1       -8.539588
   2       -6.511008
   3       -5.337385
   4       -5.337385
   5       -4.176167
   6       -4.176167
   7       -2.833703
   8       -0.718505
   9       -0.718505
  10        0.109226
  11        0.109226
  12        0.182664
  13        0.560988
  14        1.196595
  15        2.627271
  16        2.787381
  17        3.771408
  18        4.421188
  19        4.421188
  20        4.726736
 
  0.4166667E+00  0.8333333E-01  0.8333333E-01  0.1111111E+00
   1       -8.081638
   2       -7.401772
   3       -5.230357
   4       -5.230357
   5       -4.184975
   6       -4.184975
   7       -1.447324
   8       -1.060908
   9       -1.060908
  10       -0.235962
  11       -0.235962
  12       -0.097680
  13        0.787270
  14        1.049539
  15        1.689881
  16        1.756077
  17        4.093307
  18        4.631572
  19        5.554610
  20        5.986287
 
  0.2500000E+00  0.2500000E+00  0.8333333E-01  0.1111111E+00
   1       -8.312964
   2       -6.344548
   3       -6.344548
   4       -5.436172
   5       -4.092242
   6       -3.060654
   7       -3.060654
   8       -1.194039
   9       -0.379729
  10       -0.379729
  11        0.116112
  12        0.491082
  13        0.491082
  14        0.737693
  15        1.869303
  16        3.176893
  17        4.097895
  18        4.640429
  19        4.640429
  20        5.280567
 
  0.4166667E+00  0.2500000E+00  0.8333333E-01  0.2222222E+00
   1       -7.863637
   2       -7.201091
   3       -6.045339
   4       -5.697073
   5       -3.845092
   6       -3.452838
   7       -1.995867
   8       -1.224048
   9       -0.960724
  10       -0.894193
  11        0.214252
  12        0.490694
  13        0.716758
  14        0.980102
  15        1.287297
  16        2.364698
  17        5.026045
  18        5.061433
  19        5.565375
  20        6.204415
 
  0.4166667E+00  0.4166667E+00  0.8333333E-01  0.1111111E+00
   1       -7.435242
   2       -6.815439
   3       -6.815439
   4       -6.285089
   5       -3.339261
   6       -2.699287
   7       -2.699287
   8       -1.874868
   9       -0.998819
  10       -0.475061
  11       -0.475061
  12        0.173624
  13        1.514774
  14        1.581371
  15        1.581371
  16        2.448194
  17        4.840308
  18        5.495245
  19        5.827955
  20        5.827969
 
  0.2500000E+00  0.2500000E+00  0.2500000E+00  0.3703704E-01
   1       -8.091624
   2       -6.235237
   3       -6.235237
   4       -6.235237
   5       -3.421405
   6       -3.421405
   7       -3.421405
   8       -0.907917
   9       -0.495267
  10       -0.495267
  11       -0.495267
  12        0.960901
  13        0.960901
  14        0.960901
  15        2.658235
  16        2.658235
  17        4.379516
  18        4.379516
  19        4.379516
  20        4.450541
 
  0.4166667E+00  0.2500000E+00  0.2500000E+00  0.1111111E+00
   1       -7.655648
   2       -7.022602
   3       -6.105231
   4       -6.105231
   5       -3.771545
   6       -3.771545
   7       -2.701626
   8       -1.877435
   9       -0.435817
  10       -0.435817
  11        0.660750
  12        1.028645
  13        1.028645
  14        1.391358
  15        1.943213
  16        1.988427
  17        4.878062
  18        4.977197
  19        5.256122
  20        5.256124
 
  0.4166667E+00  0.4166667E+00  0.2500000E+00  0.1111111E+00
   1       -7.254361
   2       -6.701549
   3       -6.701549
   4       -6.338788
   5       -3.804800
   6       -3.396748
   7       -3.396748
   8       -2.743385
   9        0.064455
  10        0.519740
  11        0.519740
  12        1.316068
  13        1.658041
  14        1.695069
  15        1.695069
  16        2.363318
  17        4.785767
  18        4.984214
  19        5.352861
  20        5.352869
 
  0.4166667E+00  0.4166667E+00  0.4166667E+00  0.3703704E-01
   1       -6.929509
   2       -6.565748
   3       -6.565748
   4       -6.565748
   5       -3.907080
   6       -3.907080
   7       -3.907080
   8       -3.500341
   9        1.376231
  10        1.376231
  11        1.376231
  12        1.904150
  13        1.904150
  14        1.904150
  15        2.170591
  16        2.170591
  17        4.042207
  18        4.669522
  19        4.669522
  20        4.669524
