       N       E                     dE             d eps       ncg     rms          rms(c)
DAV:   1     0.472644416011E+02    0.47264E+02   -0.73070E+03   400   0.747E+02
DAV:   2    -0.197993739186E+02   -0.67064E+02   -0.66688E+02   640   0.881E+01
DAV:   3    -0.210512714539E+02   -0.12519E+01   -0.12511E+01   480   0.174E+01
DAV:   4    -0.210545427209E+02   -0.32713E-02   -0.32711E-02   740   0.894E-01
DAV:   5    -0.210545430086E+02   -0.28771E-06   -0.28768E-06   440   0.682E-03    0.278E+00
RMM:   6    -0.209720330198E+02    0.82510E-01   -0.13478E-02   400   0.104E+00    0.173E+00
RMM:   7    -0.209295465951E+02    0.42486E-01   -0.35808E-02   402   0.165E+00    0.987E-02
RMM:   8    -0.209298089994E+02   -0.26240E-03   -0.52372E-04   366   0.128E-01    0.197E-02
RMM:   9    -0.209298469907E+02   -0.37991E-04   -0.71201E-05   262   0.494E-02
   1 F= -.20929847E+02 E0= -.20880327E+02  d E =-.990396E-01
