 vasp.5.3.3 18Dez12 (build Dec 13 2014 13:36:02) complex                        
  
 executed on             LinuxIFC date 2018.11.27  23:21:41
 running on   20 total cores
 distrk:  each k-point on   20 cores,    1 groups
 distr:  one band on NCORES_PER_BAND=   1 cores,   20 groups


--------------------------------------------------------------------------------------------------------


 INCAR:
 POTCAR:   PAW_PBE Ga 08Apr2002                   

 ----------------------------------------------------------------------------- 
|                                                                             |
|           W    W    AA    RRRRR   N    N  II  N    N   GGGG   !!!           |
|           W    W   A  A   R    R  NN   N  II  NN   N  G    G  !!!           |
|           W    W  A    A  R    R  N N  N  II  N N  N  G       !!!           |
|           W WW W  AAAAAA  RRRRR   N  N N  II  N  N N  G  GGG   !            |
|           WW  WW  A    A  R   R   N   NN  II  N   NN  G    G                |
|           W    W  A    A  R    R  N    N  II  N    N   GGGG   !!!           |
|                                                                             |
|      For optimal performance we recommend that you set                      |
|        NPAR = 4 - approx SQRT( number of cores)                             |
|      (number of cores/NPAR must be integer)                                 |
|      This setting will greatly improve the performance of VASP for DFT.     |
|      The default NPAR=number of cores might be grossly inefficient          |
|      on modern multi-core architectures or massively parallel machines.     |
|      Do your own testing.                                                   |
|      Unfortunately you need to use the default for hybrid, GW and RPA       |
|      calculations.                                                          |
|                                                                             |
 ----------------------------------------------------------------------------- 

 POTCAR:   PAW_PBE Ga 08Apr2002                   
   VRHFIN =Ga: s2p1                                                             
   LEXCH  = PE                                                                  
   EATOM  =    58.8688 eV,    4.3267 Ry                                         
                                                                                
   TITEL  = PAW_PBE Ga 08Apr2002                                                
   LULTRA =        F    use ultrasoft PP ?                                      
   IUNSCR =        1    unscreen: 0-lin 1-nonlin 2-no                           
   RPACOR =    2.170    partial core radius                                     
   POMASS =   69.723; ZVAL   =    3.000    mass and valenz                      
   RCORE  =    2.600    outmost cutoff radius                                   
   RWIGS  =    2.650; RWIGS  =    1.402    wigner-seitz radius (au A)           
   ENMAX  =  134.678; ENMIN  =  101.009 eV                                      
   ICORE  =        3    local potential                                         
   LCOR   =        T    correct aug charges                                     
   LPAW   =        T    paw PP                                                  
   EAUG   =  320.264                                                            
   DEXC   =    -.116                                                            
   RMAX   =    3.973    core radius for proj-oper                               
   RAUG   =    1.300    factor for augmentation sphere                          
   RDEP   =    2.684    radius for radial grids                                 
   QCUT   =   -3.146; QGAM   =    6.292    optimization parameters              
                                                                                
   Description                                                                  
     l     E      TYP  RCUT    TYP  RCUT                                        
     0   .000     23  2.600                                                     
     0   .000     23  2.600                                                     
     1   .000     23  2.600                                                     
     1   .000     23  2.600                                                     
     2   .100     23  2.600                                                     
     3  -.100      7  2.600                                                     
  local pseudopotential read in
  partial core-charges read in
  atomic valenz-charges read in
  non local Contribution for L=           0  read in
    real space projection operators read in
  non local Contribution for L=           0  read in
    real space projection operators read in
  non local Contribution for L=           1  read in
    real space projection operators read in
  non local Contribution for L=           1  read in
    real space projection operators read in
  non local Contribution for L=           2  read in
    real space projection operators read in
    PAW grid and wavefunctions read in
 
   number of l-projection  operators is LMAX  =           5
   number of lm-projection operators is LMMAX =          13
 
 PAW_PBE Ga 08Apr2002                   :
 energy of atom  1       EATOM=  -58.8688
 kinetic energy error for atom=    0.0001 (will be added to EATOM!!)
 
 
 POSCAR: MP POSCAR: Ge8                          
  positions in direct lattice
  No initial velocities read in
 exchange correlation table for  LEXCH =        8
   RHO(1)=    0.500       N(1)  =     2000
   RHO(2)=  100.500       N(2)  =     4000
 


--------------------------------------------------------------------------------------------------------


 ion  position               nearest neighbor table
   1  0.750  0.750  0.750-   2 2.50   4 2.50   6 2.50   8 2.50
   2  0.500  0.000  0.000-   1 2.50   3 2.50   5 2.50   7 2.50
   3  0.750  0.250  0.250-   2 2.50   4 2.50   6 2.50   8 2.50
   4  0.500  0.500  0.500-   1 2.50   3 2.50   5 2.50   7 2.50
   5  0.250  0.750  0.250-   2 2.50   4 2.50   6 2.50   8 2.50
   6  0.000  0.000  0.500-   1 2.50   3 2.50   5 2.50   7 2.50
   7  0.250  0.250  0.750-   2 2.50   4 2.50   6 2.50   8 2.50
   8  0.000  0.500  0.000-   1 2.50   3 2.50   5 2.50   7 2.50
 
  LATTYP: Found a simple cubic cell.
 ALAT       =     5.7628630000
  
  Lattice vectors:
  
 A1 = (   5.7628630000,   0.0000000000,   0.0000000000)
 A2 = (   0.0000000000,   5.7628630000,   0.0000000000)
 A3 = (   0.0000000000,   0.0000000000,   5.7628630000)


Analysis of symmetry for initial positions (statically):
=====================================================================
 Subroutine PRICEL returns following result:
 
  LATTYP: Found a face centered cubic cell.
 ALAT       =     5.7628630000
  
  Lattice vectors:
  
 A1 = (   2.8814315000,   2.8814315000,  -0.0000000000)
 A2 = (   2.8814315000,   0.0000000000,  -2.8814315000)
 A3 = (   0.0000000000,   2.8814315000,  -2.8814315000)
 
   4 primitive cells build up your supercell.
 

 Routine SETGRP: Setting up the symmetry group for a 
 simple cubic supercell.


 Subroutine GETGRP returns: Found 48 space group operations
 (whereof 24 operations were pure point group operations)
 out of a pool of 48 trial point group operations.


The static configuration has the point symmetry T_d .
 The point group associated with its full space group is O_h .


Analysis of symmetry for dynamics (positions and initial velocities):
=====================================================================
 Subroutine PRICEL returns following result:
 
  LATTYP: Found a face centered cubic cell.
 ALAT       =     5.7628630000
  
  Lattice vectors:
  
 A1 = (   2.8814315000,   2.8814315000,  -0.0000000000)
 A2 = (   2.8814315000,   0.0000000000,  -2.8814315000)
 A3 = (   0.0000000000,   2.8814315000,  -2.8814315000)
 
   4 primitive cells build up your supercell.
 

 Routine SETGRP: Setting up the symmetry group for a 
 simple cubic supercell.


 Subroutine GETGRP returns: Found 48 space group operations
 (whereof 24 operations were pure point group operations)
 out of a pool of 48 trial point group operations.


The dynamic configuration has the point symmetry T_d .
 The point group associated with its full space group is O_h .


 irot  :   1
 --------------------------------------------------------------------
 isymop:   1   0   0
           0   1   0
           0   0   1

 gtrans:     0.0000000     0.0000000    -0.0000000

 ptrans:     0.0000000     0.0000000     0.0000000
 rotmap:
 (   1->   1)  (   2->   2)  (   3->   3)  (   4->   4)  (   5->   5) 
 (   6->   6)  (   7->   7)  (   8->   8) 

 ptrans:     0.5000000     0.5000000     0.0000000
 rotmap:
 (   1->   7)  (   2->   8)  (   3->   5)  (   4->   6)  (   5->   3) 
 (   6->   4)  (   7->   1)  (   8->   2) 

 ptrans:     0.5000000     0.0000000     0.5000000
 rotmap:
 (   1->   5)  (   2->   6)  (   3->   7)  (   4->   8)  (   5->   1) 
 (   6->   2)  (   7->   3)  (   8->   4) 

 ptrans:     0.0000000     0.5000000     0.5000000
 rotmap:
 (   1->   3)  (   2->   4)  (   3->   1)  (   4->   2)  (   5->   7) 
 (   6->   8)  (   7->   5)  (   8->   6) 


 irot  :   2
 --------------------------------------------------------------------
 isymop:   0   0   1
           1   0   0
           0   1   0

 gtrans:     0.0000000     0.0000000    -0.0000000

 ptrans:     0.0000000     0.0000000     0.0000000
 rotmap:
 (   1->   1)  (   2->   8)  (   3->   5)  (   4->   4)  (   5->   7) 
 (   6->   2)  (   7->   3)  (   8->   6) 

 ptrans:     0.5000000     0.5000000     0.0000000
 rotmap:
 (   1->   7)  (   2->   2)  (   3->   3)  (   4->   6)  (   5->   1) 
 (   6->   8)  (   7->   5)  (   8->   4) 

 ptrans:     0.5000000     0.0000000     0.5000000
 rotmap:
 (   1->   5)  (   2->   4)  (   3->   1)  (   4->   8)  (   5->   3) 
 (   6->   6)  (   7->   7)  (   8->   2) 

 ptrans:     0.0000000     0.5000000     0.5000000
 rotmap:
 (   1->   3)  (   2->   6)  (   3->   7)  (   4->   2)  (   5->   5) 
 (   6->   4)  (   7->   1)  (   8->   8) 


 irot  :   3
 --------------------------------------------------------------------
 isymop:   0   1   0
           0   0   1
           1   0   0

 gtrans:     0.0000000     0.0000000    -0.0000000

 ptrans:     0.0000000     0.0000000     0.0000000
 rotmap:
 (   1->   1)  (   2->   6)  (   3->   7)  (   4->   4)  (   5->   3) 
 (   6->   8)  (   7->   5)  (   8->   2) 

 ptrans:     0.5000000     0.5000000     0.0000000
 rotmap:
 (   1->   7)  (   2->   4)  (   3->   1)  (   4->   6)  (   5->   5) 
 (   6->   2)  (   7->   3)  (   8->   8) 

 ptrans:     0.5000000     0.0000000     0.5000000
 rotmap:
 (   1->   5)  (   2->   2)  (   3->   3)  (   4->   8)  (   5->   7) 
 (   6->   4)  (   7->   1)  (   8->   6) 

 ptrans:     0.0000000     0.5000000     0.5000000
 rotmap:
 (   1->   3)  (   2->   8)  (   3->   5)  (   4->   2)  (   5->   1) 
 (   6->   6)  (   7->   7)  (   8->   4) 


 irot  :   4
 --------------------------------------------------------------------
 isymop:   0   1   0
          -1   0   0
           0   0  -1

 gtrans:     0.0000000     0.0000000    -0.0000000

 ptrans:     0.0000000     0.0000000     0.0000000
 rotmap:
 (   1->   3)  (   2->   8)  (   3->   7)  (   4->   4)  (   5->   1) 
 (   6->   6)  (   7->   5)  (   8->   2) 

 ptrans:     0.5000000     0.5000000     0.0000000
 rotmap:
 (   1->   5)  (   2->   2)  (   3->   1)  (   4->   6)  (   5->   7) 
 (   6->   4)  (   7->   3)  (   8->   8) 

 ptrans:     0.5000000     0.0000000     0.5000000
 rotmap:
 (   1->   7)  (   2->   4)  (   3->   3)  (   4->   8)  (   5->   5) 
 (   6->   2)  (   7->   1)  (   8->   6) 

 ptrans:     0.0000000     0.5000000     0.5000000
 rotmap:
 (   1->   1)  (   2->   6)  (   3->   5)  (   4->   2)  (   5->   3) 
 (   6->   8)  (   7->   7)  (   8->   4) 


 irot  :   5
 --------------------------------------------------------------------
 isymop:   1   0   0
           0   0  -1
           0  -1   0

 gtrans:     0.0000000     0.0000000    -0.0000000

 ptrans:     0.0000000     0.0000000     0.0000000
 rotmap:
 (   1->   3)  (   2->   2)  (   3->   1)  (   4->   4)  (   5->   5) 
 (   6->   8)  (   7->   7)  (   8->   6) 

 ptrans:     0.5000000     0.5000000     0.0000000
 rotmap:
 (   1->   5)  (   2->   8)  (   3->   7)  (   4->   6)  (   5->   3) 
 (   6->   2)  (   7->   1)  (   8->   4) 

 ptrans:     0.5000000     0.0000000     0.5000000
 rotmap:
 (   1->   7)  (   2->   6)  (   3->   5)  (   4->   8)  (   5->   1) 
 (   6->   4)  (   7->   3)  (   8->   2) 

 ptrans:     0.0000000     0.5000000     0.5000000
 rotmap:
 (   1->   1)  (   2->   4)  (   3->   3)  (   4->   2)  (   5->   7) 
 (   6->   6)  (   7->   5)  (   8->   8) 


 irot  :   6
 --------------------------------------------------------------------
 isymop:   0   0   1
           0  -1   0
          -1   0   0

 gtrans:     0.0000000     0.0000000    -0.0000000

 ptrans:     0.0000000     0.0000000     0.0000000
 rotmap:
 (   1->   3)  (   2->   6)  (   3->   5)  (   4->   4)  (   5->   7) 
 (   6->   2)  (   7->   1)  (   8->   8) 

 ptrans:     0.5000000     0.5000000     0.0000000
 rotmap:
 (   1->   5)  (   2->   4)  (   3->   3)  (   4->   6)  (   5->   1) 
 (   6->   8)  (   7->   7)  (   8->   2) 

 ptrans:     0.5000000     0.0000000     0.5000000
 rotmap:
 (   1->   7)  (   2->   2)  (   3->   1)  (   4->   8)  (   5->   3) 
 (   6->   6)  (   7->   5)  (   8->   4) 

 ptrans:     0.0000000     0.5000000     0.5000000
 rotmap:
 (   1->   1)  (   2->   8)  (   3->   7)  (   4->   2)  (   5->   5) 
 (   6->   4)  (   7->   3)  (   8->   6) 


 irot  :   7
 --------------------------------------------------------------------
 isymop:  -1   0   0
           0  -1   0
           0   0   1

 gtrans:     0.0000000     0.0000000    -0.0000000

 ptrans:     0.0000000     0.0000000     0.0000000
 rotmap:
 (   1->   7)  (   2->   2)  (   3->   5)  (   4->   4)  (   5->   3) 
 (   6->   6)  (   7->   1)  (   8->   8) 

 ptrans:     0.5000000     0.5000000     0.0000000
 rotmap:
 (   1->   1)  (   2->   8)  (   3->   3)  (   4->   6)  (   5->   5) 
 (   6->   4)  (   7->   7)  (   8->   2) 

 ptrans:     0.5000000     0.0000000     0.5000000
 rotmap:
 (   1->   3)  (   2->   6)  (   3->   1)  (   4->   8)  (   5->   7) 
 (   6->   2)  (   7->   5)  (   8->   4) 

 ptrans:     0.0000000     0.5000000     0.5000000
 rotmap:
 (   1->   5)  (   2->   4)  (   3->   7)  (   4->   2)  (   5->   1) 
 (   6->   8)  (   7->   3)  (   8->   6) 


 irot  :   8
 --------------------------------------------------------------------
 isymop:   0   0  -1
          -1   0   0
           0   1   0

 gtrans:     0.0000000     0.0000000    -0.0000000

 ptrans:     0.0000000     0.0000000     0.0000000
 rotmap:
 (   1->   7)  (   2->   8)  (   3->   3)  (   4->   4)  (   5->   1) 
 (   6->   2)  (   7->   5)  (   8->   6) 

 ptrans:     0.5000000     0.5000000     0.0000000
 rotmap:
 (   1->   1)  (   2->   2)  (   3->   5)  (   4->   6)  (   5->   7) 
 (   6->   8)  (   7->   3)  (   8->   4) 

 ptrans:     0.5000000     0.0000000     0.5000000
 rotmap:
 (   1->   3)  (   2->   4)  (   3->   7)  (   4->   8)  (   5->   5) 
 (   6->   6)  (   7->   1)  (   8->   2) 

 ptrans:     0.0000000     0.5000000     0.5000000
 rotmap:
 (   1->   5)  (   2->   6)  (   3->   1)  (   4->   2)  (   5->   3) 
 (   6->   4)  (   7->   7)  (   8->   8) 


 irot  :   9
 --------------------------------------------------------------------
 isymop:   0  -1   0
           0   0  -1
           1   0   0

 gtrans:     0.0000000     0.0000000    -0.0000000

 ptrans:     0.0000000     0.0000000     0.0000000
 rotmap:
 (   1->   7)  (   2->   6)  (   3->   1)  (   4->   4)  (   5->   5) 
 (   6->   8)  (   7->   3)  (   8->   2) 

 ptrans:     0.5000000     0.5000000     0.0000000
 rotmap:
 (   1->   1)  (   2->   4)  (   3->   7)  (   4->   6)  (   5->   3) 
 (   6->   2)  (   7->   5)  (   8->   8) 

 ptrans:     0.5000000     0.0000000     0.5000000
 rotmap:
 (   1->   3)  (   2->   2)  (   3->   5)  (   4->   8)  (   5->   1) 
 (   6->   4)  (   7->   7)  (   8->   6) 

 ptrans:     0.0000000     0.5000000     0.5000000
 rotmap:
 (   1->   5)  (   2->   8)  (   3->   3)  (   4->   2)  (   5->   7) 
 (   6->   6)  (   7->   1)  (   8->   4) 


 irot  :  10
 --------------------------------------------------------------------
 isymop:   0  -1   0
           1   0   0
           0   0  -1

 gtrans:     0.0000000     0.0000000    -0.0000000

 ptrans:     0.0000000     0.0000000     0.0000000
 rotmap:
 (   1->   5)  (   2->   8)  (   3->   1)  (   4->   4)  (   5->   7) 
 (   6->   6)  (   7->   3)  (   8->   2) 

 ptrans:     0.5000000     0.5000000     0.0000000
 rotmap:
 (   1->   3)  (   2->   2)  (   3->   7)  (   4->   6)  (   5->   1) 
 (   6->   4)  (   7->   5)  (   8->   8) 

 ptrans:     0.5000000     0.0000000     0.5000000
 rotmap:
 (   1->   1)  (   2->   4)  (   3->   5)  (   4->   8)  (   5->   3) 
 (   6->   2)  (   7->   7)  (   8->   6) 

 ptrans:     0.0000000     0.5000000     0.5000000
 rotmap:
 (   1->   7)  (   2->   6)  (   3->   3)  (   4->   2)  (   5->   5) 
 (   6->   8)  (   7->   1)  (   8->   4) 


 irot  :  11
 --------------------------------------------------------------------
 isymop:  -1   0   0
           0   0   1
           0  -1   0

 gtrans:     0.0000000     0.0000000    -0.0000000

 ptrans:     0.0000000     0.0000000     0.0000000
 rotmap:
 (   1->   5)  (   2->   2)  (   3->   7)  (   4->   4)  (   5->   3) 
 (   6->   8)  (   7->   1)  (   8->   6) 

 ptrans:     0.5000000     0.5000000     0.0000000
 rotmap:
 (   1->   3)  (   2->   8)  (   3->   1)  (   4->   6)  (   5->   5) 
 (   6->   2)  (   7->   7)  (   8->   4) 

 ptrans:     0.5000000     0.0000000     0.5000000
 rotmap:
 (   1->   1)  (   2->   6)  (   3->   3)  (   4->   8)  (   5->   7) 
 (   6->   4)  (   7->   5)  (   8->   2) 

 ptrans:     0.0000000     0.5000000     0.5000000
 rotmap:
 (   1->   7)  (   2->   4)  (   3->   5)  (   4->   2)  (   5->   1) 
 (   6->   6)  (   7->   3)  (   8->   8) 


 irot  :  12
 --------------------------------------------------------------------
 isymop:   0   0  -1
           0   1   0
          -1   0   0

 gtrans:     0.0000000     0.0000000    -0.0000000

 ptrans:     0.0000000     0.0000000     0.0000000
 rotmap:
 (   1->   5)  (   2->   6)  (   3->   3)  (   4->   4)  (   5->   1) 
 (   6->   2)  (   7->   7)  (   8->   8) 

 ptrans:     0.5000000     0.5000000     0.0000000
 rotmap:
 (   1->   3)  (   2->   4)  (   3->   5)  (   4->   6)  (   5->   7) 
 (   6->   8)  (   7->   1)  (   8->   2) 

 ptrans:     0.5000000     0.0000000     0.5000000
 rotmap:
 (   1->   1)  (   2->   2)  (   3->   7)  (   4->   8)  (   5->   5) 
 (   6->   6)  (   7->   3)  (   8->   4) 

 ptrans:     0.0000000     0.5000000     0.5000000
 rotmap:
 (   1->   7)  (   2->   8)  (   3->   1)  (   4->   2)  (   5->   3) 
 (   6->   4)  (   7->   5)  (   8->   6) 


 irot  :  13
 --------------------------------------------------------------------
 isymop:   0   0   1
          -1   0   0
           0  -1   0

 gtrans:     0.0000000     0.0000000    -0.0000000

 ptrans:     0.0000000     0.0000000     0.0000000
 rotmap:
 (   1->   3)  (   2->   8)  (   3->   7)  (   4->   4)  (   5->   5) 
 (   6->   2)  (   7->   1)  (   8->   6) 

 ptrans:     0.5000000     0.5000000     0.0000000
 rotmap:
 (   1->   5)  (   2->   2)  (   3->   1)  (   4->   6)  (   5->   3) 
 (   6->   8)  (   7->   7)  (   8->   4) 

 ptrans:     0.5000000     0.0000000     0.5000000
 rotmap:
 (   1->   7)  (   2->   4)  (   3->   3)  (   4->   8)  (   5->   1) 
 (   6->   6)  (   7->   5)  (   8->   2) 

 ptrans:     0.0000000     0.5000000     0.5000000
 rotmap:
 (   1->   1)  (   2->   6)  (   3->   5)  (   4->   2)  (   5->   7) 
 (   6->   4)  (   7->   3)  (   8->   8) 


 irot  :  14
 --------------------------------------------------------------------
 isymop:   0   1   0
           0   0  -1
          -1   0   0

 gtrans:     0.0000000     0.0000000    -0.0000000

 ptrans:     0.0000000     0.0000000     0.0000000
 rotmap:
 (   1->   3)  (   2->   6)  (   3->   5)  (   4->   4)  (   5->   1) 
 (   6->   8)  (   7->   7)  (   8->   2) 

 ptrans:     0.5000000     0.5000000     0.0000000
 rotmap:
 (   1->   5)  (   2->   4)  (   3->   3)  (   4->   6)  (   5->   7) 
 (   6->   2)  (   7->   1)  (   8->   8) 

 ptrans:     0.5000000     0.0000000     0.5000000
 rotmap:
 (   1->   7)  (   2->   2)  (   3->   1)  (   4->   8)  (   5->   5) 
 (   6->   4)  (   7->   3)  (   8->   6) 

 ptrans:     0.0000000     0.5000000     0.5000000
 rotmap:
 (   1->   1)  (   2->   8)  (   3->   7)  (   4->   2)  (   5->   3) 
 (   6->   6)  (   7->   5)  (   8->   4) 


 irot  :  15
 --------------------------------------------------------------------
 isymop:   1   0   0
           0  -1   0
           0   0  -1

 gtrans:     0.0000000     0.0000000    -0.0000000

 ptrans:     0.0000000     0.0000000     0.0000000
 rotmap:
 (   1->   3)  (   2->   2)  (   3->   1)  (   4->   4)  (   5->   7) 
 (   6->   6)  (   7->   5)  (   8->   8) 

 ptrans:     0.5000000     0.5000000     0.0000000
 rotmap:
 (   1->   5)  (   2->   8)  (   3->   7)  (   4->   6)  (   5->   1) 
 (   6->   4)  (   7->   3)  (   8->   2) 

 ptrans:     0.5000000     0.0000000     0.5000000
 rotmap:
 (   1->   7)  (   2->   6)  (   3->   5)  (   4->   8)  (   5->   3) 
 (   6->   2)  (   7->   1)  (   8->   4) 

 ptrans:     0.0000000     0.5000000     0.5000000
 rotmap:
 (   1->   1)  (   2->   4)  (   3->   3)  (   4->   2)  (   5->   5) 
 (   6->   8)  (   7->   7)  (   8->   6) 


 irot  :  16
 --------------------------------------------------------------------
 isymop:   0   0  -1
           0  -1   0
           1   0   0

 gtrans:     0.0000000     0.0000000    -0.0000000

 ptrans:     0.0000000     0.0000000     0.0000000
 rotmap:
 (   1->   7)  (   2->   6)  (   3->   1)  (   4->   4)  (   5->   3) 
 (   6->   2)  (   7->   5)  (   8->   8) 

 ptrans:     0.5000000     0.5000000     0.0000000
 rotmap:
 (   1->   1)  (   2->   4)  (   3->   7)  (   4->   6)  (   5->   5) 
 (   6->   8)  (   7->   3)  (   8->   2) 

 ptrans:     0.5000000     0.0000000     0.5000000
 rotmap:
 (   1->   3)  (   2->   2)  (   3->   5)  (   4->   8)  (   5->   7) 
 (   6->   6)  (   7->   1)  (   8->   4) 

 ptrans:     0.0000000     0.5000000     0.5000000
 rotmap:
 (   1->   5)  (   2->   8)  (   3->   3)  (   4->   2)  (   5->   1) 
 (   6->   4)  (   7->   7)  (   8->   6) 


 irot  :  17
 --------------------------------------------------------------------
 isymop:   0  -1   0
          -1   0   0
           0   0   1

 gtrans:     0.0000000     0.0000000    -0.0000000

 ptrans:     0.0000000     0.0000000     0.0000000
 rotmap:
 (   1->   7)  (   2->   8)  (   3->   3)  (   4->   4)  (   5->   5) 
 (   6->   6)  (   7->   1)  (   8->   2) 

 ptrans:     0.5000000     0.5000000     0.0000000
 rotmap:
 (   1->   1)  (   2->   2)  (   3->   5)  (   4->   6)  (   5->   3) 
 (   6->   4)  (   7->   7)  (   8->   8) 

 ptrans:     0.5000000     0.0000000     0.5000000
 rotmap:
 (   1->   3)  (   2->   4)  (   3->   7)  (   4->   8)  (   5->   1) 
 (   6->   2)  (   7->   5)  (   8->   6) 

 ptrans:     0.0000000     0.5000000     0.5000000
 rotmap:
 (   1->   5)  (   2->   6)  (   3->   1)  (   4->   2)  (   5->   7) 
 (   6->   8)  (   7->   3)  (   8->   4) 


 irot  :  18
 --------------------------------------------------------------------
 isymop:  -1   0   0
           0   0  -1
           0   1   0

 gtrans:     0.0000000     0.0000000    -0.0000000

 ptrans:     0.0000000     0.0000000     0.0000000
 rotmap:
 (   1->   7)  (   2->   2)  (   3->   5)  (   4->   4)  (   5->   1) 
 (   6->   8)  (   7->   3)  (   8->   6) 

 ptrans:     0.5000000     0.5000000     0.0000000
 rotmap:
 (   1->   1)  (   2->   8)  (   3->   3)  (   4->   6)  (   5->   7) 
 (   6->   2)  (   7->   5)  (   8->   4) 

 ptrans:     0.5000000     0.0000000     0.5000000
 rotmap:
 (   1->   3)  (   2->   6)  (   3->   1)  (   4->   8)  (   5->   5) 
 (   6->   4)  (   7->   7)  (   8->   2) 

 ptrans:     0.0000000     0.5000000     0.5000000
 rotmap:
 (   1->   5)  (   2->   4)  (   3->   7)  (   4->   2)  (   5->   3) 
 (   6->   6)  (   7->   1)  (   8->   8) 


 irot  :  19
 --------------------------------------------------------------------
 isymop:   0  -1   0
           0   0   1
          -1   0   0

 gtrans:     0.0000000     0.0000000    -0.0000000

 ptrans:     0.0000000     0.0000000     0.0000000
 rotmap:
 (   1->   5)  (   2->   6)  (   3->   3)  (   4->   4)  (   5->   7) 
 (   6->   8)  (   7->   1)  (   8->   2) 

 ptrans:     0.5000000     0.5000000     0.0000000
 rotmap:
 (   1->   3)  (   2->   4)  (   3->   5)  (   4->   6)  (   5->   1) 
 (   6->   2)  (   7->   7)  (   8->   8) 

 ptrans:     0.5000000     0.0000000     0.5000000
 rotmap:
 (   1->   1)  (   2->   2)  (   3->   7)  (   4->   8)  (   5->   3) 
 (   6->   4)  (   7->   5)  (   8->   6) 

 ptrans:     0.0000000     0.5000000     0.5000000
 rotmap:
 (   1->   7)  (   2->   8)  (   3->   1)  (   4->   2)  (   5->   5) 
 (   6->   6)  (   7->   3)  (   8->   4) 


 irot  :  20
 --------------------------------------------------------------------
 isymop:  -1   0   0
           0   1   0
           0   0  -1

 gtrans:     0.0000000     0.0000000    -0.0000000

 ptrans:     0.0000000     0.0000000     0.0000000
 rotmap:
 (   1->   5)  (   2->   2)  (   3->   7)  (   4->   4)  (   5->   1) 
 (   6->   6)  (   7->   3)  (   8->   8) 

 ptrans:     0.5000000     0.5000000     0.0000000
 rotmap:
 (   1->   3)  (   2->   8)  (   3->   1)  (   4->   6)  (   5->   7) 
 (   6->   4)  (   7->   5)  (   8->   2) 

 ptrans:     0.5000000     0.0000000     0.5000000
 rotmap:
 (   1->   1)  (   2->   6)  (   3->   3)  (   4->   8)  (   5->   5) 
 (   6->   2)  (   7->   7)  (   8->   4) 

 ptrans:     0.0000000     0.5000000     0.5000000
 rotmap:
 (   1->   7)  (   2->   4)  (   3->   5)  (   4->   2)  (   5->   3) 
 (   6->   8)  (   7->   1)  (   8->   6) 


 irot  :  21
 --------------------------------------------------------------------
 isymop:   0   0  -1
           1   0   0
           0  -1   0

 gtrans:     0.0000000     0.0000000    -0.0000000

 ptrans:     0.0000000     0.0000000     0.0000000
 rotmap:
 (   1->   5)  (   2->   8)  (   3->   1)  (   4->   4)  (   5->   3) 
 (   6->   2)  (   7->   7)  (   8->   6) 

 ptrans:     0.5000000     0.5000000     0.0000000
 rotmap:
 (   1->   3)  (   2->   2)  (   3->   7)  (   4->   6)  (   5->   5) 
 (   6->   8)  (   7->   1)  (   8->   4) 

 ptrans:     0.5000000     0.0000000     0.5000000
 rotmap:
 (   1->   1)  (   2->   4)  (   3->   5)  (   4->   8)  (   5->   7) 
 (   6->   6)  (   7->   3)  (   8->   2) 

 ptrans:     0.0000000     0.5000000     0.5000000
 rotmap:
 (   1->   7)  (   2->   6)  (   3->   3)  (   4->   2)  (   5->   1) 
 (   6->   4)  (   7->   5)  (   8->   8) 


 irot  :  22
 --------------------------------------------------------------------
 isymop:   1   0   0
           0   0   1
           0   1   0

 gtrans:     0.0000000     0.0000000    -0.0000000

 ptrans:     0.0000000     0.0000000     0.0000000
 rotmap:
 (   1->   1)  (   2->   2)  (   3->   3)  (   4->   4)  (   5->   7) 
 (   6->   8)  (   7->   5)  (   8->   6) 

 ptrans:     0.5000000     0.5000000     0.0000000
 rotmap:
 (   1->   7)  (   2->   8)  (   3->   5)  (   4->   6)  (   5->   1) 
 (   6->   2)  (   7->   3)  (   8->   4) 

 ptrans:     0.5000000     0.0000000     0.5000000
 rotmap:
 (   1->   5)  (   2->   6)  (   3->   7)  (   4->   8)  (   5->   3) 
 (   6->   4)  (   7->   1)  (   8->   2) 

 ptrans:     0.0000000     0.5000000     0.5000000
 rotmap:
 (   1->   3)  (   2->   4)  (   3->   1)  (   4->   2)  (   5->   5) 
 (   6->   6)  (   7->   7)  (   8->   8) 


 irot  :  23
 --------------------------------------------------------------------
 isymop:   0   1   0
           1   0   0
           0   0   1

 gtrans:     0.0000000     0.0000000    -0.0000000

 ptrans:     0.0000000     0.0000000     0.0000000
 rotmap:
 (   1->   1)  (   2->   8)  (   3->   5)  (   4->   4)  (   5->   3) 
 (   6->   6)  (   7->   7)  (   8->   2) 

 ptrans:     0.5000000     0.5000000     0.0000000
 rotmap:
 (   1->   7)  (   2->   2)  (   3->   3)  (   4->   6)  (   5->   5) 
 (   6->   4)  (   7->   1)  (   8->   8) 

 ptrans:     0.5000000     0.0000000     0.5000000
 rotmap:
 (   1->   5)  (   2->   4)  (   3->   1)  (   4->   8)  (   5->   7) 
 (   6->   2)  (   7->   3)  (   8->   6) 

 ptrans:     0.0000000     0.5000000     0.5000000
 rotmap:
 (   1->   3)  (   2->   6)  (   3->   7)  (   4->   2)  (   5->   1) 
 (   6->   8)  (   7->   5)  (   8->   4) 


 irot  :  24
 --------------------------------------------------------------------
 isymop:   0   0   1
           0   1   0
           1   0   0

 gtrans:     0.0000000     0.0000000    -0.0000000

 ptrans:     0.0000000     0.0000000     0.0000000
 rotmap:
 (   1->   1)  (   2->   6)  (   3->   7)  (   4->   4)  (   5->   5) 
 (   6->   2)  (   7->   3)  (   8->   8) 

 ptrans:     0.5000000     0.5000000     0.0000000
 rotmap:
 (   1->   7)  (   2->   4)  (   3->   1)  (   4->   6)  (   5->   3) 
 (   6->   8)  (   7->   5)  (   8->   2) 

 ptrans:     0.5000000     0.0000000     0.5000000
 rotmap:
 (   1->   5)  (   2->   2)  (   3->   3)  (   4->   8)  (   5->   1) 
 (   6->   6)  (   7->   7)  (   8->   4) 

 ptrans:     0.0000000     0.5000000     0.5000000
 rotmap:
 (   1->   3)  (   2->   8)  (   3->   5)  (   4->   2)  (   5->   7) 
 (   6->   4)  (   7->   1)  (   8->   6) 


 irot  :  25
 --------------------------------------------------------------------
 isymop:  -1   0   0
           0  -1   0
           0   0  -1

 gtrans:     0.7500000     0.7500000    -0.7500000

 ptrans:     0.0000000     0.0000000     0.0000000
 rotmap:
 (   1->   6)  (   2->   5)  (   3->   8)  (   4->   7)  (   5->   2) 
 (   6->   1)  (   7->   4)  (   8->   3) 

 ptrans:     0.5000000     0.5000000     0.0000000
 rotmap:
 (   1->   4)  (   2->   3)  (   3->   2)  (   4->   1)  (   5->   8) 
 (   6->   7)  (   7->   6)  (   8->   5) 

 ptrans:     0.5000000     0.0000000     0.5000000
 rotmap:
 (   1->   2)  (   2->   1)  (   3->   4)  (   4->   3)  (   5->   6) 
 (   6->   5)  (   7->   8)  (   8->   7) 

 ptrans:     0.0000000     0.5000000     0.5000000
 rotmap:
 (   1->   8)  (   2->   7)  (   3->   6)  (   4->   5)  (   5->   4) 
 (   6->   3)  (   7->   2)  (   8->   1) 


 irot  :  26
 --------------------------------------------------------------------
 isymop:   0   0  -1
          -1   0   0
           0  -1   0

 gtrans:     0.7500000     0.7500000    -0.7500000

 ptrans:     0.0000000     0.0000000     0.0000000
 rotmap:
 (   1->   6)  (   2->   3)  (   3->   2)  (   4->   7)  (   5->   4) 
 (   6->   5)  (   7->   8)  (   8->   1) 

 ptrans:     0.5000000     0.5000000     0.0000000
 rotmap:
 (   1->   4)  (   2->   5)  (   3->   8)  (   4->   1)  (   5->   6) 
 (   6->   3)  (   7->   2)  (   8->   7) 

 ptrans:     0.5000000     0.0000000     0.5000000
 rotmap:
 (   1->   2)  (   2->   7)  (   3->   6)  (   4->   3)  (   5->   8) 
 (   6->   1)  (   7->   4)  (   8->   5) 

 ptrans:     0.0000000     0.5000000     0.5000000
 rotmap:
 (   1->   8)  (   2->   1)  (   3->   4)  (   4->   5)  (   5->   2) 
 (   6->   7)  (   7->   6)  (   8->   3) 


 irot  :  27
 --------------------------------------------------------------------
 isymop:   0  -1   0
           0   0  -1
          -1   0   0

 gtrans:     0.7500000     0.7500000    -0.7500000

 ptrans:     0.0000000     0.0000000     0.0000000
 rotmap:
 (   1->   6)  (   2->   1)  (   3->   4)  (   4->   7)  (   5->   8) 
 (   6->   3)  (   7->   2)  (   8->   5) 

 ptrans:     0.5000000     0.5000000     0.0000000
 rotmap:
 (   1->   4)  (   2->   7)  (   3->   6)  (   4->   1)  (   5->   2) 
 (   6->   5)  (   7->   8)  (   8->   3) 

 ptrans:     0.5000000     0.0000000     0.5000000
 rotmap:
 (   1->   2)  (   2->   5)  (   3->   8)  (   4->   3)  (   5->   4) 
 (   6->   7)  (   7->   6)  (   8->   1) 

 ptrans:     0.0000000     0.5000000     0.5000000
 rotmap:
 (   1->   8)  (   2->   3)  (   3->   2)  (   4->   5)  (   5->   6) 
 (   6->   1)  (   7->   4)  (   8->   7) 


 irot  :  28
 --------------------------------------------------------------------
 isymop:   0  -1   0
           1   0   0
           0   0   1

 gtrans:     0.7500000     0.7500000    -0.7500000

 ptrans:     0.0000000     0.0000000     0.0000000
 rotmap:
 (   1->   8)  (   2->   3)  (   3->   4)  (   4->   7)  (   5->   6) 
 (   6->   1)  (   7->   2)  (   8->   5) 

 ptrans:     0.5000000     0.5000000     0.0000000
 rotmap:
 (   1->   2)  (   2->   5)  (   3->   6)  (   4->   1)  (   5->   4) 
 (   6->   7)  (   7->   8)  (   8->   3) 

 ptrans:     0.5000000     0.0000000     0.5000000
 rotmap:
 (   1->   4)  (   2->   7)  (   3->   8)  (   4->   3)  (   5->   2) 
 (   6->   5)  (   7->   6)  (   8->   1) 

 ptrans:     0.0000000     0.5000000     0.5000000
 rotmap:
 (   1->   6)  (   2->   1)  (   3->   2)  (   4->   5)  (   5->   8) 
 (   6->   3)  (   7->   4)  (   8->   7) 


 irot  :  29
 --------------------------------------------------------------------
 isymop:  -1   0   0
           0   0   1
           0   1   0

 gtrans:     0.7500000     0.7500000    -0.7500000

 ptrans:     0.0000000     0.0000000     0.0000000
 rotmap:
 (   1->   8)  (   2->   5)  (   3->   6)  (   4->   7)  (   5->   2) 
 (   6->   3)  (   7->   4)  (   8->   1) 

 ptrans:     0.5000000     0.5000000     0.0000000
 rotmap:
 (   1->   2)  (   2->   3)  (   3->   4)  (   4->   1)  (   5->   8) 
 (   6->   5)  (   7->   6)  (   8->   7) 

 ptrans:     0.5000000     0.0000000     0.5000000
 rotmap:
 (   1->   4)  (   2->   1)  (   3->   2)  (   4->   3)  (   5->   6) 
 (   6->   7)  (   7->   8)  (   8->   5) 

 ptrans:     0.0000000     0.5000000     0.5000000
 rotmap:
 (   1->   6)  (   2->   7)  (   3->   8)  (   4->   5)  (   5->   4) 
 (   6->   1)  (   7->   2)  (   8->   3) 


 irot  :  30
 --------------------------------------------------------------------
 isymop:   0   0  -1
           0   1   0
           1   0   0

 gtrans:     0.7500000     0.7500000    -0.7500000

 ptrans:     0.0000000     0.0000000     0.0000000
 rotmap:
 (   1->   8)  (   2->   1)  (   3->   2)  (   4->   7)  (   5->   4) 
 (   6->   5)  (   7->   6)  (   8->   3) 

 ptrans:     0.5000000     0.5000000     0.0000000
 rotmap:
 (   1->   2)  (   2->   7)  (   3->   8)  (   4->   1)  (   5->   6) 
 (   6->   3)  (   7->   4)  (   8->   5) 

 ptrans:     0.5000000     0.0000000     0.5000000
 rotmap:
 (   1->   4)  (   2->   5)  (   3->   6)  (   4->   3)  (   5->   8) 
 (   6->   1)  (   7->   2)  (   8->   7) 

 ptrans:     0.0000000     0.5000000     0.5000000
 rotmap:
 (   1->   6)  (   2->   3)  (   3->   4)  (   4->   5)  (   5->   2) 
 (   6->   7)  (   7->   8)  (   8->   1) 


 irot  :  31
 --------------------------------------------------------------------
 isymop:   1   0   0
           0   1   0
           0   0  -1

 gtrans:     0.7500000     0.7500000    -0.7500000

 ptrans:     0.0000000     0.0000000     0.0000000
 rotmap:
 (   1->   4)  (   2->   5)  (   3->   2)  (   4->   7)  (   5->   8) 
 (   6->   1)  (   7->   6)  (   8->   3) 

 ptrans:     0.5000000     0.5000000     0.0000000
 rotmap:
 (   1->   6)  (   2->   3)  (   3->   8)  (   4->   1)  (   5->   2) 
 (   6->   7)  (   7->   4)  (   8->   5) 

 ptrans:     0.5000000     0.0000000     0.5000000
 rotmap:
 (   1->   8)  (   2->   1)  (   3->   6)  (   4->   3)  (   5->   4) 
 (   6->   5)  (   7->   2)  (   8->   7) 

 ptrans:     0.0000000     0.5000000     0.5000000
 rotmap:
 (   1->   2)  (   2->   7)  (   3->   4)  (   4->   5)  (   5->   6) 
 (   6->   3)  (   7->   8)  (   8->   1) 


 irot  :  32
 --------------------------------------------------------------------
 isymop:   0   0   1
           1   0   0
           0  -1   0

 gtrans:     0.7500000     0.7500000    -0.7500000

 ptrans:     0.0000000     0.0000000     0.0000000
 rotmap:
 (   1->   4)  (   2->   3)  (   3->   8)  (   4->   7)  (   5->   6) 
 (   6->   5)  (   7->   2)  (   8->   1) 

 ptrans:     0.5000000     0.5000000     0.0000000
 rotmap:
 (   1->   6)  (   2->   5)  (   3->   2)  (   4->   1)  (   5->   4) 
 (   6->   3)  (   7->   8)  (   8->   7) 

 ptrans:     0.5000000     0.0000000     0.5000000
 rotmap:
 (   1->   8)  (   2->   7)  (   3->   4)  (   4->   3)  (   5->   2) 
 (   6->   1)  (   7->   6)  (   8->   5) 

 ptrans:     0.0000000     0.5000000     0.5000000
 rotmap:
 (   1->   2)  (   2->   1)  (   3->   6)  (   4->   5)  (   5->   8) 
 (   6->   7)  (   7->   4)  (   8->   3) 


 irot  :  33
 --------------------------------------------------------------------
 isymop:   0   1   0
           0   0   1
          -1   0   0

 gtrans:     0.7500000     0.7500000    -0.7500000

 ptrans:     0.0000000     0.0000000     0.0000000
 rotmap:
 (   1->   4)  (   2->   1)  (   3->   6)  (   4->   7)  (   5->   2) 
 (   6->   3)  (   7->   8)  (   8->   5) 

 ptrans:     0.5000000     0.5000000     0.0000000
 rotmap:
 (   1->   6)  (   2->   7)  (   3->   4)  (   4->   1)  (   5->   8) 
 (   6->   5)  (   7->   2)  (   8->   3) 

 ptrans:     0.5000000     0.0000000     0.5000000
 rotmap:
 (   1->   8)  (   2->   5)  (   3->   2)  (   4->   3)  (   5->   6) 
 (   6->   7)  (   7->   4)  (   8->   1) 

 ptrans:     0.0000000     0.5000000     0.5000000
 rotmap:
 (   1->   2)  (   2->   3)  (   3->   8)  (   4->   5)  (   5->   4) 
 (   6->   1)  (   7->   6)  (   8->   7) 


 irot  :  34
 --------------------------------------------------------------------
 isymop:   0   1   0
          -1   0   0
           0   0   1

 gtrans:     0.7500000     0.7500000    -0.7500000

 ptrans:     0.0000000     0.0000000     0.0000000
 rotmap:
 (   1->   2)  (   2->   3)  (   3->   6)  (   4->   7)  (   5->   4) 
 (   6->   1)  (   7->   8)  (   8->   5) 

 ptrans:     0.5000000     0.5000000     0.0000000
 rotmap:
 (   1->   8)  (   2->   5)  (   3->   4)  (   4->   1)  (   5->   6) 
 (   6->   7)  (   7->   2)  (   8->   3) 

 ptrans:     0.5000000     0.0000000     0.5000000
 rotmap:
 (   1->   6)  (   2->   7)  (   3->   2)  (   4->   3)  (   5->   8) 
 (   6->   5)  (   7->   4)  (   8->   1) 

 ptrans:     0.0000000     0.5000000     0.5000000
 rotmap:
 (   1->   4)  (   2->   1)  (   3->   8)  (   4->   5)  (   5->   2) 
 (   6->   3)  (   7->   6)  (   8->   7) 


 irot  :  35
 --------------------------------------------------------------------
 isymop:   1   0   0
           0   0  -1
           0   1   0

 gtrans:     0.7500000     0.7500000    -0.7500000

 ptrans:     0.0000000     0.0000000     0.0000000
 rotmap:
 (   1->   2)  (   2->   5)  (   3->   4)  (   4->   7)  (   5->   8) 
 (   6->   3)  (   7->   6)  (   8->   1) 

 ptrans:     0.5000000     0.5000000     0.0000000
 rotmap:
 (   1->   8)  (   2->   3)  (   3->   6)  (   4->   1)  (   5->   2) 
 (   6->   5)  (   7->   4)  (   8->   7) 

 ptrans:     0.5000000     0.0000000     0.5000000
 rotmap:
 (   1->   6)  (   2->   1)  (   3->   8)  (   4->   3)  (   5->   4) 
 (   6->   7)  (   7->   2)  (   8->   5) 

 ptrans:     0.0000000     0.5000000     0.5000000
 rotmap:
 (   1->   4)  (   2->   7)  (   3->   2)  (   4->   5)  (   5->   6) 
 (   6->   1)  (   7->   8)  (   8->   3) 


 irot  :  36
 --------------------------------------------------------------------
 isymop:   0   0   1
           0  -1   0
           1   0   0

 gtrans:     0.7500000     0.7500000    -0.7500000

 ptrans:     0.0000000     0.0000000     0.0000000
 rotmap:
 (   1->   2)  (   2->   1)  (   3->   8)  (   4->   7)  (   5->   6) 
 (   6->   5)  (   7->   4)  (   8->   3) 

 ptrans:     0.5000000     0.5000000     0.0000000
 rotmap:
 (   1->   8)  (   2->   7)  (   3->   2)  (   4->   1)  (   5->   4) 
 (   6->   3)  (   7->   6)  (   8->   5) 

 ptrans:     0.5000000     0.0000000     0.5000000
 rotmap:
 (   1->   6)  (   2->   5)  (   3->   4)  (   4->   3)  (   5->   2) 
 (   6->   1)  (   7->   8)  (   8->   7) 

 ptrans:     0.0000000     0.5000000     0.5000000
 rotmap:
 (   1->   4)  (   2->   3)  (   3->   6)  (   4->   5)  (   5->   8) 
 (   6->   7)  (   7->   2)  (   8->   1) 


 irot  :  37
 --------------------------------------------------------------------
 isymop:   0   0  -1
           1   0   0
           0   1   0

 gtrans:     0.7500000     0.7500000    -0.7500000

 ptrans:     0.0000000     0.0000000     0.0000000
 rotmap:
 (   1->   8)  (   2->   3)  (   3->   4)  (   4->   7)  (   5->   2) 
 (   6->   5)  (   7->   6)  (   8->   1) 

 ptrans:     0.5000000     0.5000000     0.0000000
 rotmap:
 (   1->   2)  (   2->   5)  (   3->   6)  (   4->   1)  (   5->   8) 
 (   6->   3)  (   7->   4)  (   8->   7) 

 ptrans:     0.5000000     0.0000000     0.5000000
 rotmap:
 (   1->   4)  (   2->   7)  (   3->   8)  (   4->   3)  (   5->   6) 
 (   6->   1)  (   7->   2)  (   8->   5) 

 ptrans:     0.0000000     0.5000000     0.5000000
 rotmap:
 (   1->   6)  (   2->   1)  (   3->   2)  (   4->   5)  (   5->   4) 
 (   6->   7)  (   7->   8)  (   8->   3) 


 irot  :  38
 --------------------------------------------------------------------
 isymop:   0  -1   0
           0   0   1
           1   0   0

 gtrans:     0.7500000     0.7500000    -0.7500000

 ptrans:     0.0000000     0.0000000     0.0000000
 rotmap:
 (   1->   8)  (   2->   1)  (   3->   2)  (   4->   7)  (   5->   6) 
 (   6->   3)  (   7->   4)  (   8->   5) 

 ptrans:     0.5000000     0.5000000     0.0000000
 rotmap:
 (   1->   2)  (   2->   7)  (   3->   8)  (   4->   1)  (   5->   4) 
 (   6->   5)  (   7->   6)  (   8->   3) 

 ptrans:     0.5000000     0.0000000     0.5000000
 rotmap:
 (   1->   4)  (   2->   5)  (   3->   6)  (   4->   3)  (   5->   2) 
 (   6->   7)  (   7->   8)  (   8->   1) 

 ptrans:     0.0000000     0.5000000     0.5000000
 rotmap:
 (   1->   6)  (   2->   3)  (   3->   4)  (   4->   5)  (   5->   8) 
 (   6->   1)  (   7->   2)  (   8->   7) 


 irot  :  39
 --------------------------------------------------------------------
 isymop:  -1   0   0
           0   1   0
           0   0   1

 gtrans:     0.7500000     0.7500000    -0.7500000

 ptrans:     0.0000000     0.0000000     0.0000000
 rotmap:
 (   1->   8)  (   2->   5)  (   3->   6)  (   4->   7)  (   5->   4) 
 (   6->   1)  (   7->   2)  (   8->   3) 

 ptrans:     0.5000000     0.5000000     0.0000000
 rotmap:
 (   1->   2)  (   2->   3)  (   3->   4)  (   4->   1)  (   5->   6) 
 (   6->   7)  (   7->   8)  (   8->   5) 

 ptrans:     0.5000000     0.0000000     0.5000000
 rotmap:
 (   1->   4)  (   2->   1)  (   3->   2)  (   4->   3)  (   5->   8) 
 (   6->   5)  (   7->   6)  (   8->   7) 

 ptrans:     0.0000000     0.5000000     0.5000000
 rotmap:
 (   1->   6)  (   2->   7)  (   3->   8)  (   4->   5)  (   5->   2) 
 (   6->   3)  (   7->   4)  (   8->   1) 


 irot  :  40
 --------------------------------------------------------------------
 isymop:   0   0   1
           0   1   0
          -1   0   0

 gtrans:     0.7500000     0.7500000    -0.7500000

 ptrans:     0.0000000     0.0000000     0.0000000
 rotmap:
 (   1->   4)  (   2->   1)  (   3->   6)  (   4->   7)  (   5->   8) 
 (   6->   5)  (   7->   2)  (   8->   3) 

 ptrans:     0.5000000     0.5000000     0.0000000
 rotmap:
 (   1->   6)  (   2->   7)  (   3->   4)  (   4->   1)  (   5->   2) 
 (   6->   3)  (   7->   8)  (   8->   5) 

 ptrans:     0.5000000     0.0000000     0.5000000
 rotmap:
 (   1->   8)  (   2->   5)  (   3->   2)  (   4->   3)  (   5->   4) 
 (   6->   1)  (   7->   6)  (   8->   7) 

 ptrans:     0.0000000     0.5000000     0.5000000
 rotmap:
 (   1->   2)  (   2->   3)  (   3->   8)  (   4->   5)  (   5->   6) 
 (   6->   7)  (   7->   4)  (   8->   1) 


 irot  :  41
 --------------------------------------------------------------------
 isymop:   0   1   0
           1   0   0
           0   0  -1

 gtrans:     0.7500000     0.7500000    -0.7500000

 ptrans:     0.0000000     0.0000000     0.0000000
 rotmap:
 (   1->   4)  (   2->   3)  (   3->   8)  (   4->   7)  (   5->   2) 
 (   6->   1)  (   7->   6)  (   8->   5) 

 ptrans:     0.5000000     0.5000000     0.0000000
 rotmap:
 (   1->   6)  (   2->   5)  (   3->   2)  (   4->   1)  (   5->   8) 
 (   6->   7)  (   7->   4)  (   8->   3) 

 ptrans:     0.5000000     0.0000000     0.5000000
 rotmap:
 (   1->   8)  (   2->   7)  (   3->   4)  (   4->   3)  (   5->   6) 
 (   6->   5)  (   7->   2)  (   8->   1) 

 ptrans:     0.0000000     0.5000000     0.5000000
 rotmap:
 (   1->   2)  (   2->   1)  (   3->   6)  (   4->   5)  (   5->   4) 
 (   6->   3)  (   7->   8)  (   8->   7) 


 irot  :  42
 --------------------------------------------------------------------
 isymop:   1   0   0
           0   0   1
           0  -1   0

 gtrans:     0.7500000     0.7500000    -0.7500000

 ptrans:     0.0000000     0.0000000     0.0000000
 rotmap:
 (   1->   4)  (   2->   5)  (   3->   2)  (   4->   7)  (   5->   6) 
 (   6->   3)  (   7->   8)  (   8->   1) 

 ptrans:     0.5000000     0.5000000     0.0000000
 rotmap:
 (   1->   6)  (   2->   3)  (   3->   8)  (   4->   1)  (   5->   4) 
 (   6->   5)  (   7->   2)  (   8->   7) 

 ptrans:     0.5000000     0.0000000     0.5000000
 rotmap:
 (   1->   8)  (   2->   1)  (   3->   6)  (   4->   3)  (   5->   2) 
 (   6->   7)  (   7->   4)  (   8->   5) 

 ptrans:     0.0000000     0.5000000     0.5000000
 rotmap:
 (   1->   2)  (   2->   7)  (   3->   4)  (   4->   5)  (   5->   8) 
 (   6->   1)  (   7->   6)  (   8->   3) 


 irot  :  43
 --------------------------------------------------------------------
 isymop:   0   1   0
           0   0  -1
           1   0   0

 gtrans:     0.7500000     0.7500000    -0.7500000

 ptrans:     0.0000000     0.0000000     0.0000000
 rotmap:
 (   1->   2)  (   2->   1)  (   3->   8)  (   4->   7)  (   5->   4) 
 (   6->   3)  (   7->   6)  (   8->   5) 

 ptrans:     0.5000000     0.5000000     0.0000000
 rotmap:
 (   1->   8)  (   2->   7)  (   3->   2)  (   4->   1)  (   5->   6) 
 (   6->   5)  (   7->   4)  (   8->   3) 

 ptrans:     0.5000000     0.0000000     0.5000000
 rotmap:
 (   1->   6)  (   2->   5)  (   3->   4)  (   4->   3)  (   5->   8) 
 (   6->   7)  (   7->   2)  (   8->   1) 

 ptrans:     0.0000000     0.5000000     0.5000000
 rotmap:
 (   1->   4)  (   2->   3)  (   3->   6)  (   4->   5)  (   5->   2) 
 (   6->   1)  (   7->   8)  (   8->   7) 


 irot  :  44
 --------------------------------------------------------------------
 isymop:   1   0   0
           0  -1   0
           0   0   1

 gtrans:     0.7500000     0.7500000    -0.7500000

 ptrans:     0.0000000     0.0000000     0.0000000
 rotmap:
 (   1->   2)  (   2->   5)  (   3->   4)  (   4->   7)  (   5->   6) 
 (   6->   1)  (   7->   8)  (   8->   3) 

 ptrans:     0.5000000     0.5000000     0.0000000
 rotmap:
 (   1->   8)  (   2->   3)  (   3->   6)  (   4->   1)  (   5->   4) 
 (   6->   7)  (   7->   2)  (   8->   5) 

 ptrans:     0.5000000     0.0000000     0.5000000
 rotmap:
 (   1->   6)  (   2->   1)  (   3->   8)  (   4->   3)  (   5->   2) 
 (   6->   5)  (   7->   4)  (   8->   7) 

 ptrans:     0.0000000     0.5000000     0.5000000
 rotmap:
 (   1->   4)  (   2->   7)  (   3->   2)  (   4->   5)  (   5->   8) 
 (   6->   3)  (   7->   6)  (   8->   1) 


 irot  :  45
 --------------------------------------------------------------------
 isymop:   0   0   1
          -1   0   0
           0   1   0

 gtrans:     0.7500000     0.7500000    -0.7500000

 ptrans:     0.0000000     0.0000000     0.0000000
 rotmap:
 (   1->   2)  (   2->   3)  (   3->   6)  (   4->   7)  (   5->   8) 
 (   6->   5)  (   7->   4)  (   8->   1) 

 ptrans:     0.5000000     0.5000000     0.0000000
 rotmap:
 (   1->   8)  (   2->   5)  (   3->   4)  (   4->   1)  (   5->   2) 
 (   6->   3)  (   7->   6)  (   8->   7) 

 ptrans:     0.5000000     0.0000000     0.5000000
 rotmap:
 (   1->   6)  (   2->   7)  (   3->   2)  (   4->   3)  (   5->   4) 
 (   6->   1)  (   7->   8)  (   8->   5) 

 ptrans:     0.0000000     0.5000000     0.5000000
 rotmap:
 (   1->   4)  (   2->   1)  (   3->   8)  (   4->   5)  (   5->   6) 
 (   6->   7)  (   7->   2)  (   8->   3) 


 irot  :  46
 --------------------------------------------------------------------
 isymop:  -1   0   0
           0   0  -1
           0  -1   0

 gtrans:     0.7500000     0.7500000    -0.7500000

 ptrans:     0.0000000     0.0000000     0.0000000
 rotmap:
 (   1->   6)  (   2->   5)  (   3->   8)  (   4->   7)  (   5->   4) 
 (   6->   3)  (   7->   2)  (   8->   1) 

 ptrans:     0.5000000     0.5000000     0.0000000
 rotmap:
 (   1->   4)  (   2->   3)  (   3->   2)  (   4->   1)  (   5->   6) 
 (   6->   5)  (   7->   8)  (   8->   7) 

 ptrans:     0.5000000     0.0000000     0.5000000
 rotmap:
 (   1->   2)  (   2->   1)  (   3->   4)  (   4->   3)  (   5->   8) 
 (   6->   7)  (   7->   6)  (   8->   5) 

 ptrans:     0.0000000     0.5000000     0.5000000
 rotmap:
 (   1->   8)  (   2->   7)  (   3->   6)  (   4->   5)  (   5->   2) 
 (   6->   1)  (   7->   4)  (   8->   3) 


 irot  :  47
 --------------------------------------------------------------------
 isymop:   0  -1   0
          -1   0   0
           0   0  -1

 gtrans:     0.7500000     0.7500000    -0.7500000

 ptrans:     0.0000000     0.0000000     0.0000000
 rotmap:
 (   1->   6)  (   2->   3)  (   3->   2)  (   4->   7)  (   5->   8) 
 (   6->   1)  (   7->   4)  (   8->   5) 

 ptrans:     0.5000000     0.5000000     0.0000000
 rotmap:
 (   1->   4)  (   2->   5)  (   3->   8)  (   4->   1)  (   5->   2) 
 (   6->   7)  (   7->   6)  (   8->   3) 

 ptrans:     0.5000000     0.0000000     0.5000000
 rotmap:
 (   1->   2)  (   2->   7)  (   3->   6)  (   4->   3)  (   5->   4) 
 (   6->   5)  (   7->   8)  (   8->   1) 

 ptrans:     0.0000000     0.5000000     0.5000000
 rotmap:
 (   1->   8)  (   2->   1)  (   3->   4)  (   4->   5)  (   5->   6) 
 (   6->   3)  (   7->   2)  (   8->   7) 


 irot  :  48
 --------------------------------------------------------------------
 isymop:   0   0  -1
           0  -1   0
          -1   0   0

 gtrans:     0.7500000     0.7500000    -0.7500000

 ptrans:     0.0000000     0.0000000     0.0000000
 rotmap:
 (   1->   6)  (   2->   1)  (   3->   4)  (   4->   7)  (   5->   2) 
 (   6->   5)  (   7->   8)  (   8->   3) 

 ptrans:     0.5000000     0.5000000     0.0000000
 rotmap:
 (   1->   4)  (   2->   7)  (   3->   6)  (   4->   1)  (   5->   8) 
 (   6->   3)  (   7->   2)  (   8->   5) 

 ptrans:     0.5000000     0.0000000     0.5000000
 rotmap:
 (   1->   2)  (   2->   5)  (   3->   8)  (   4->   3)  (   5->   6) 
 (   6->   1)  (   7->   4)  (   8->   7) 

 ptrans:     0.0000000     0.5000000     0.5000000
 rotmap:
 (   1->   8)  (   2->   3)  (   3->   2)  (   4->   5)  (   5->   4) 
 (   6->   7)  (   7->   6)  (   8->   1) 
 
 
 KPOINTS: Automatic kpoint scheme                 

Automatic generation of k-mesh.
Space group operators:
 irot       det(A)        alpha          n_x          n_y          n_z        tau_x        tau_y        tau_z
    1     1.000000     0.000001     1.000000     0.000000     0.000000     0.000000     0.000000    -0.000000
    2     1.000000   120.000000    -0.577350    -0.577350    -0.577350     0.000000     0.000000    -0.000000
    3     1.000000   120.000000     0.577350     0.577350     0.577350     0.000000     0.000000    -0.000000
    4    -1.000000    90.000000     0.000000     0.000000    -1.000000     0.000000     0.000000    -0.000000
    5    -1.000000   180.000000     0.000000     0.707107     0.707107     0.000000     0.000000    -0.000000
    6    -1.000000    90.000000     0.000000     1.000000     0.000000     0.000000     0.000000    -0.000000
    7     1.000000   180.000000     0.000000     0.000000     1.000000     0.000000     0.000000    -0.000000
    8     1.000000   120.000000    -0.577350     0.577350     0.577350     0.000000     0.000000    -0.000000
    9     1.000000   120.000000    -0.577350     0.577350    -0.577350     0.000000     0.000000    -0.000000
   10    -1.000000    90.000000     0.000000     0.000000     1.000000     0.000000     0.000000    -0.000000
   11    -1.000000    90.000000    -1.000000     0.000000     0.000000     0.000000     0.000000    -0.000000
   12    -1.000000   180.000000     0.707107     0.000000     0.707107     0.000000     0.000000    -0.000000
   13     1.000000   120.000000     0.577350    -0.577350     0.577350     0.000000     0.000000    -0.000000
   14     1.000000   120.000000    -0.577350    -0.577350     0.577350     0.000000     0.000000    -0.000000
   15     1.000000   180.000000     1.000000     0.000000     0.000000     0.000000     0.000000    -0.000000
   16    -1.000000    90.000000     0.000000    -1.000000     0.000000     0.000000     0.000000    -0.000000
   17    -1.000000   180.000000     0.707107     0.707107     0.000000     0.000000     0.000000    -0.000000
   18    -1.000000    90.000000     1.000000     0.000000     0.000000     0.000000     0.000000    -0.000000
   19     1.000000   120.000000     0.577350    -0.577350    -0.577350     0.000000     0.000000    -0.000000
   20     1.000000   180.000000     0.000000     1.000000     0.000000     0.000000     0.000000    -0.000000
   21     1.000000   120.000000     0.577350     0.577350    -0.577350     0.000000     0.000000    -0.000000
   22    -1.000000   180.000000     0.000000    -0.707107     0.707107     0.000000     0.000000    -0.000000
   23    -1.000000   180.000000     0.707107    -0.707107     0.000000     0.000000     0.000000    -0.000000
   24    -1.000000   180.000000     0.707107     0.000000    -0.707107     0.000000     0.000000    -0.000000
   25    -1.000000     0.000001     1.000000     0.000000     0.000000     0.750000     0.750000    -0.750000
   26    -1.000000   120.000000    -0.577350    -0.577350    -0.577350     0.750000     0.750000    -0.750000
   27    -1.000000   120.000000     0.577350     0.577350     0.577350     0.750000     0.750000    -0.750000
   28     1.000000    90.000000     0.000000     0.000000    -1.000000     0.750000     0.750000    -0.750000
   29     1.000000   180.000000     0.000000     0.707107     0.707107     0.750000     0.750000    -0.750000
   30     1.000000    90.000000     0.000000     1.000000     0.000000     0.750000     0.750000    -0.750000
   31    -1.000000   180.000000     0.000000     0.000000     1.000000     0.750000     0.750000    -0.750000
   32    -1.000000   120.000000    -0.577350     0.577350     0.577350     0.750000     0.750000    -0.750000
   33    -1.000000   120.000000    -0.577350     0.577350    -0.577350     0.750000     0.750000    -0.750000
   34     1.000000    90.000000     0.000000     0.000000     1.000000     0.750000     0.750000    -0.750000
   35     1.000000    90.000000    -1.000000     0.000000     0.000000     0.750000     0.750000    -0.750000
   36     1.000000   180.000000     0.707107     0.000000     0.707107     0.750000     0.750000    -0.750000
   37    -1.000000   120.000000     0.577350    -0.577350     0.577350     0.750000     0.750000    -0.750000
   38    -1.000000   120.000000    -0.577350    -0.577350     0.577350     0.750000     0.750000    -0.750000
   39    -1.000000   180.000000     1.000000     0.000000     0.000000     0.750000     0.750000    -0.750000
   40     1.000000    90.000000     0.000000    -1.000000     0.000000     0.750000     0.750000    -0.750000
   41     1.000000   180.000000     0.707107     0.707107     0.000000     0.750000     0.750000    -0.750000
   42     1.000000    90.000000     1.000000     0.000000     0.000000     0.750000     0.750000    -0.750000
   43    -1.000000   120.000000     0.577350    -0.577350    -0.577350     0.750000     0.750000    -0.750000
   44    -1.000000   180.000000     0.000000     1.000000     0.000000     0.750000     0.750000    -0.750000
   45    -1.000000   120.000000     0.577350     0.577350    -0.577350     0.750000     0.750000    -0.750000
   46     1.000000   180.000000     0.000000    -0.707107     0.707107     0.750000     0.750000    -0.750000
   47     1.000000   180.000000     0.707107    -0.707107     0.000000     0.750000     0.750000    -0.750000
   48     1.000000   180.000000     0.707107     0.000000    -0.707107     0.750000     0.750000    -0.750000
 
 Subroutine IBZKPT returns following result:
 ===========================================
 
 Found     10 irreducible k-points:
 
 Following reciprocal coordinates:
            Coordinates               Weight
  0.083333  0.083333  0.083333      8.000000
  0.250000  0.083333  0.083333     24.000000
  0.416667  0.083333  0.083333     24.000000
  0.250000  0.250000  0.083333     24.000000
  0.416667  0.250000  0.083333     48.000000
  0.416667  0.416667  0.083333     24.000000
  0.250000  0.250000  0.250000      8.000000
  0.416667  0.250000  0.250000     24.000000
  0.416667  0.416667  0.250000     24.000000
  0.416667  0.416667  0.416667      8.000000
 
 Following cartesian coordinates:
            Coordinates               Weight
  0.014460  0.014460  0.014460      8.000000
  0.043381  0.014460  0.014460     24.000000
  0.072302  0.014460  0.014460     24.000000
  0.043381  0.043381  0.014460     24.000000
  0.072302  0.043381  0.014460     48.000000
  0.072302  0.072302  0.014460     24.000000
  0.043381  0.043381  0.043381      8.000000
  0.072302  0.043381  0.043381     24.000000
  0.072302  0.072302  0.043381     24.000000
  0.072302  0.072302  0.072302      8.000000
 


--------------------------------------------------------------------------------------------------------




 Dimension of arrays:
   k-points           NKPTS =     10   k-points in BZ     NKDIM =     10   number of bands    NBANDS=     20
   number of dos      NEDOS =    301   number of ions     NIONS =      8
   non local maximal  LDIM  =      5   non local SUM 2l+1 LMDIM =     13
   total plane-waves  NPLWV =  21952
   max r-space proj   IRMAX =      1   max aug-charges    IRDMAX=   8442
   dimension x,y,z NGX =    28 NGY =   28 NGZ =   28
   dimension x,y,z NGXF=    56 NGYF=   56 NGZF=   56
   support grid    NGXF=    56 NGYF=   56 NGZF=   56
   ions per type =               8
 NGX,Y,Z   is equivalent  to a cutoff of   8.08,  8.08,  8.08 a.u.
 NGXF,Y,Z  is equivalent  to a cutoff of  16.15, 16.15, 16.15 a.u.


 I would recommend the setting:
   dimension x,y,z NGX =    28 NGY =   28 NGZ =   28
 SYSTEM =  unknown system                          
 POSCAR =  MP POSCAR: Ge8                          

 Startparameter for this run:
   NWRITE =      2    write-flag & timer
   PREC   = normal    normal or accurate (medium, high low for compatibility)
   ISTART =      0    job   : 0-new  1-cont  2-samecut
   ICHARG =      2    charge: 1-file 2-atom 10-const
   ISPIN  =      1    spin polarized calculation?
   LNONCOLLINEAR =      F non collinear calculations
   LSORBIT =      F    spin-orbit coupling
   INIWAV =      1    electr: 0-lowe 1-rand  2-diag
   LASPH  =      F    aspherical Exc in radial PAW
   METAGGA=      F    non-selfconsistent MetaGGA calc.

 Electronic Relaxation 1
   ENCUT  =  400.0 eV  29.40 Ry    5.42 a.u.   9.40  9.40  9.40*2*pi/ulx,y,z
   ENINI  =  400.0     initial cutoff
   ENAUG  =  320.3 eV  augmentation charge cutoff
   NELM   =     60;   NELMIN=  2; NELMDL= -5     # of ELM steps 
   EDIFF  = 0.1E-03   stopping-criterion for ELM
   LREAL  =      F    real-space projection
   NLSPLINE    = F    spline interpolate recip. space projectors
   LCOMPAT=      F    compatible to vasp.4.4
   GGA_COMPAT  = T    GGA compatible to vasp.4.4-vasp.4.6
   LMAXPAW     = -100 max onsite density
   LMAXMIX     =    2 max onsite mixed and CHGCAR
   VOSKOWN=      0    Vosko Wilk Nusair interpolation
   ROPT   =    0.00000
 Ionic relaxation
   EDIFFG = 0.1E-02   stopping-criterion for IOM
   NSW    =      0    number of steps for IOM
   NBLOCK =      1;   KBLOCK =      1    inner block; outer block 
   IBRION =     -1    ionic relax: 0-MD 1-quasi-New 2-CG
   NFREE  =      0    steps in history (QN), initial steepest desc. (CG)
   ISIF   =      2    stress and relaxation
   IWAVPR =     10    prediction:  0-non 1-charg 2-wave 3-comb
   ISYM   =      1    0-nonsym 1-usesym 2-fastsym
   LCORR  =      T    Harris-Foulkes like correction to forces

   POTIM  = 0.5000    time-step for ionic-motion
   TEIN   =    0.0    initial temperature
   TEBEG  =    0.0;   TEEND  =   0.0 temperature during run
   SMASS  =  -3.00    Nose mass-parameter (am)
   estimated Nose-frequenzy (Omega)   =  0.10E-29 period in steps =****** mass=  -0.759E-27a.u.
   SCALEE = 1.0000    scale energy and forces
   NPACO  =    256;   APACO  = 16.0  distance and # of slots for P.C.
   PSTRESS=    0.0 pullay stress

  Mass of Ions in am
   POMASS =  69.72
  Ionic Valenz
   ZVAL   =   3.00
  Atomic Wigner-Seitz radii
   RWIGS  =  -1.00
  virtual crystal weights 
   VCA    =   1.00
   NELECT =      24.0000    total number of electrons
   NUPDOWN=      -1.0000    fix difference up-down

 DOS related values:
   EMIN   =  10.00;   EMAX   =-10.00  energy-range for DOS
   EFERMI =   0.00
   ISMEAR =     0;   SIGMA  =   0.20  broadening in eV -4-tet -1-fermi 0-gaus

 Electronic relaxation 2 (details)
   IALGO  =     68    algorithm
   LDIAG  =      T    sub-space diagonalisation (order eigenvalues)
   LSUBROT=      T    optimize rotation matrix (better conditioning)
   TURBO    =      0    0=normal 1=particle mesh
   IRESTART =      0    0=no restart 2=restart with 2 vectors
   NREBOOT  =      0    no. of reboots
   NMIN     =      0    reboot dimension
   EREF     =   0.00    reference energy to select bands
   IMIX   =      4    mixing-type and parameters
     AMIX     =   0.40;   BMIX     =  1.00
     AMIX_MAG =   1.60;   BMIX_MAG =  1.00
     AMIN     =   0.10
     WC   =   100.;   INIMIX=   1;  MIXPRE=   1;  MAXMIX= -45

 Intra band minimization:
   WEIMIN = 0.0000     energy-eigenvalue tresh-hold
   EBREAK =  0.13E-05  absolut break condition
   DEPER  =   0.30     relativ break condition  

   TIME   =   0.40     timestep for ELM

  volume/ion in A,a.u.               =      23.92       161.44
  Fermi-wavevector in a.u.,A,eV,Ry     =   0.819421  1.548481  9.135637  0.671450
  Thomas-Fermi vector in A             =   1.930222
 
 Write flags
   LWAVE  =      F    write WAVECAR
   LCHARG =      F    write CHGCAR
   LVTOT  =      F    write LOCPOT, total local potential
   LVHAR  =      F    write LOCPOT, Hartree potential only
   LELF   =      F    write electronic localiz. function (ELF)
   LORBIT =      0    0 simple, 1 ext, 2 COOP (PROOUT)


 Dipole corrections
   LMONO  =      F    monopole corrections only (constant potential shift)
   LDIPOL =      F    correct potential (dipole corrections)
   IDIPOL =      0    1-x, 2-y, 3-z, 4-all directions 
   EPSILON=  1.0000000 bulk dielectric constant

 Exchange correlation treatment:
   GGA     =    --    GGA type
   LEXCH   =     8    internal setting for exchange type
   VOSKOWN=      0    Vosko Wilk Nusair interpolation
   LHFCALC =     F    Hartree Fock is set to
   LHFONE  =     F    Hartree Fock one center treatment
   AEXX    =    0.0000 exact exchange contribution

 Linear response parameters
   LEPSILON=     F    determine dielectric tensor
   LRPA    =     F    only Hartree local field effects (RPA)
   LNABLA  =     F    use nabla operator in PAW spheres
   LVEL    =     F    velocity operator in full k-point grid
   LINTERFAST=   F  fast interpolation
   KINTER  =     0    interpolate to denser k-point grid
   CSHIFT  =0.1000    complex shift for real part using Kramers Kronig
   OMEGAMAX=  -1.0    maximum frequency
   DEG_THRESHOLD= 0.2000000E-02 threshold for treating states as degnerate
   RTIME   =    0.100 relaxation time in fs

 Orbital magnetization related:
   ORBITALMAG=     F  switch on orbital magnetization
   LCHIMAG   =     F  perturbation theory with respect to B field
   DQ        =  0.001000  dq finite difference perturbation B field



--------------------------------------------------------------------------------------------------------


 Static calculation
 charge density and potential will be updated during run
 non-spin polarized calculation
 RMM-DIIS sequential band-by-band and
  variant of blocked Davidson during initial phase
 perform sub-space diagonalisation
    before iterative eigenvector-optimisation
 modified Broyden-mixing scheme, WC =      100.0
 initial mixing is a Kerker type mixing with AMIX =  0.4000 and BMIX =      1.0000
 Hartree-type preconditioning will be used
 using additional bands            8
 reciprocal scheme for non local part
 use partial core corrections
 calculate Harris-corrections to forces 
   (improved forces if not selfconsistent)
 use gradient corrections 
 use of overlap-Matrix (Vanderbilt PP)
 Gauss-broadening in eV      SIGMA  =   0.20


--------------------------------------------------------------------------------------------------------


  energy-cutoff  :      400.00
  volume of cell :      191.39
      direct lattice vectors                 reciprocal lattice vectors
     5.762863000  0.000000000  0.000000000     0.173524861  0.000000000  0.000000000
     0.000000000  5.762863000  0.000000000     0.000000000  0.173524861  0.000000000
     0.000000000  0.000000000  5.762863000     0.000000000  0.000000000  0.173524861

  length of vectors
     5.762863000  5.762863000  5.762863000     0.173524861  0.173524861  0.173524861


 
 k-points in units of 2pi/SCALE and weight: Automatic kpoint scheme                 
   0.01446041  0.01446041  0.01446041       0.037
   0.04338122  0.01446041  0.01446041       0.111
   0.07230203  0.01446041  0.01446041       0.111
   0.04338122  0.04338122  0.01446041       0.111
   0.07230203  0.04338122  0.01446041       0.222
   0.07230203  0.07230203  0.01446041       0.111
   0.04338122  0.04338122  0.04338122       0.037
   0.07230203  0.04338122  0.04338122       0.111
   0.07230203  0.07230203  0.04338122       0.111
   0.07230203  0.07230203  0.07230203       0.037
 
 k-points in reciprocal lattice and weights: Automatic kpoint scheme                 
   0.08333333  0.08333333  0.08333333       0.037
   0.25000000  0.08333333  0.08333333       0.111
   0.41666667  0.08333333  0.08333333       0.111
   0.25000000  0.25000000  0.08333333       0.111
   0.41666667  0.25000000  0.08333333       0.222
   0.41666667  0.41666667  0.08333333       0.111
   0.25000000  0.25000000  0.25000000       0.037
   0.41666667  0.25000000  0.25000000       0.111
   0.41666667  0.41666667  0.25000000       0.111
   0.41666667  0.41666667  0.41666667       0.037
 
 position of ions in fractional coordinates (direct lattice) 
   0.75000000  0.75000000  0.75000000
   0.50000000  0.00000000  0.00000000
   0.75000000  0.25000000  0.25000000
   0.50000000  0.50000000  0.50000000
   0.25000000  0.75000000  0.25000000
   0.00000000  0.00000000  0.50000000
   0.25000000  0.25000000  0.75000000
   0.00000000  0.50000000  0.00000000
 
 position of ions in cartesian coordinates  (Angst):
   4.32214725  4.32214725  4.32214725
   2.88143150  0.00000000  0.00000000
   4.32214725  1.44071575  1.44071575
   2.88143150  2.88143150  2.88143150
   1.44071575  4.32214725  1.44071575
   0.00000000  0.00000000  2.88143150
   1.44071575  1.44071575  4.32214725
   0.00000000  2.88143150  0.00000000
 


--------------------------------------------------------------------------------------------------------


 k-point  1 :   0.0833 0.0833 0.0833  plane waves:    3482
 k-point  2 :   0.2500 0.0833 0.0833  plane waves:    3489
 k-point  3 :   0.4167 0.0833 0.0833  plane waves:    3473
 k-point  4 :   0.2500 0.2500 0.0833  plane waves:    3496
 k-point  5 :   0.4167 0.2500 0.0833  plane waves:    3468
 k-point  6 :   0.4167 0.4167 0.0833  plane waves:    3476
 k-point  7 :   0.2500 0.2500 0.2500  plane waves:    3479
 k-point  8 :   0.4167 0.2500 0.2500  plane waves:    3480
 k-point  9 :   0.4167 0.4167 0.2500  plane waves:    3468
 k-point 10 :   0.4167 0.4167 0.4167  plane waves:    3458

 maximum and minimum number of plane-waves per node :      3496     3458

 maximum number of plane-waves:      3496
 maximum index in each direction: 
   IXMAX=    9   IYMAX=    9   IZMAX=    9
   IXMIN=   -9   IYMIN=   -9   IZMIN=   -9

 WARNING: aliasing errors must be expected set NGX to  38 to avoid them
 WARNING: aliasing errors must be expected set NGY to  38 to avoid them
 WARNING: aliasing errors must be expected set NGZ to  38 to avoid them
 aliasing errors are usually negligible using standard VASP settings
 and one can safely disregard these warnings

 serial   3D FFT for wavefunctions
 parallel 3D FFT for charge:
    minimum data exchange during FFTs selected (reduces bandwidth)


 total amount of memory used by VASP on root node    36504. kBytes
========================================================================

   base      :      30000. kBytes
   nonl-proj :       4088. kBytes
   fftplans  :        421. kBytes
   grid      :       1352. kBytes
   one-center:         64. kBytes
   wavefun   :        579. kBytes
 
 Broyden mixing: mesh for mixing (old mesh)
   NGX = 19   NGY = 19   NGZ = 19
  (NGX  = 56   NGY  = 56   NGZ  = 56)
  gives a total of   6859 points

 initial charge density was supplied:
 charge density of overlapping atoms calculated
 number of electron      24.0000000 magnetization 
 keeping initial charge density in first step


--------------------------------------------------------------------------------------------------------


 Maximum index for augmentation-charges          489 (set IRDMAX)


--------------------------------------------------------------------------------------------------------


 First call to EWALD:  gamma=   0.308
 Maximum number of real-space cells 3x 3x 3
 Maximum number of reciprocal cells 3x 3x 3

 FEWALD executed in parallel
    FEWALD:  cpu time    0.00: real time    0.00


----------------------------------------- Iteration    1(   1)  ---------------------------------------


    POTLOK:  cpu time    0.01: real time    0.01
    SETDIJ:  cpu time    0.00: real time    0.01
     EDDAV:  cpu time    0.10: real time    0.11
       DOS:  cpu time    0.00: real time    0.00
    --------------------------------------------
      LOOP:  cpu time    0.13: real time    0.15

 eigenvalue-minimisations  :   400
 total energy-change (2. order) : 0.4726444E+02  (-0.7306967E+03)
 number of electron      24.0000000 magnetization 
 augmentation part       24.0000000 magnetization 

 Free energy of the ion-electron system (eV)
  ---------------------------------------------------
  alpha Z        PSCENC =        59.64982895
  Ewald energy   TEWEN  =      -484.56382983
  -1/2 Hartree   DENC   =       -22.55400904
  -exchange  EXHF       =         0.00000000
  -V(xc)+E(xc)   XCENC  =      -155.28695347
  PAW double counting   =       330.10196642     -140.54714835
  entropy T*S    EENTRO =        -0.05504695
  eigenvalues    EBANDS =       -10.43004621
  atomic energy  EATOM  =       470.94968008
  ---------------------------------------------------
  free energy    TOTEN  =        47.26444160 eV

  energy without entropy =       47.31948855  energy(sigma->0) =       47.29196507


--------------------------------------------------------------------------------------------------------




----------------------------------------- Iteration    1(   2)  ---------------------------------------


     EDDAV:  cpu time    0.16: real time    0.17
       DOS:  cpu time    0.00: real time    0.00
    --------------------------------------------
      LOOP:  cpu time    0.17: real time    0.17

 eigenvalue-minimisations  :   640
 total energy-change (2. order) :-0.6706382E+02  (-0.6668788E+02)
 number of electron      24.0000000 magnetization 
 augmentation part       24.0000000 magnetization 

 Free energy of the ion-electron system (eV)
  ---------------------------------------------------
  alpha Z        PSCENC =        59.64982895
  Ewald energy   TEWEN  =      -484.56382983
  -1/2 Hartree   DENC   =       -22.55400904
  -exchange  EXHF       =         0.00000000
  -V(xc)+E(xc)   XCENC  =      -155.28695347
  PAW double counting   =       330.10196642     -140.54714835
  entropy T*S    EENTRO =        -0.10051093
  eigenvalues    EBANDS =       -77.44839775
  atomic energy  EATOM  =       470.94968008
  ---------------------------------------------------
  free energy    TOTEN  =       -19.79937392 eV

  energy without entropy =      -19.69886299  energy(sigma->0) =      -19.74911846


--------------------------------------------------------------------------------------------------------




----------------------------------------- Iteration    1(   3)  ---------------------------------------


     EDDAV:  cpu time    0.12: real time    0.12
       DOS:  cpu time    0.00: real time    0.00
    --------------------------------------------
      LOOP:  cpu time    0.12: real time    0.12

 eigenvalue-minimisations  :   480
 total energy-change (2. order) :-0.1251898E+01  (-0.1251119E+01)
 number of electron      24.0000000 magnetization 
 augmentation part       24.0000000 magnetization 

 Free energy of the ion-electron system (eV)
  ---------------------------------------------------
  alpha Z        PSCENC =        59.64982895
  Ewald energy   TEWEN  =      -484.56382983
  -1/2 Hartree   DENC   =       -22.55400904
  -exchange  EXHF       =         0.00000000
  -V(xc)+E(xc)   XCENC  =      -155.28695347
  PAW double counting   =       330.10196642     -140.54714835
  entropy T*S    EENTRO =        -0.09886072
  eigenvalues    EBANDS =       -78.70194550
  atomic energy  EATOM  =       470.94968008
  ---------------------------------------------------
  free energy    TOTEN  =       -21.05127145 eV

  energy without entropy =      -20.95241074  energy(sigma->0) =      -21.00184110


--------------------------------------------------------------------------------------------------------




----------------------------------------- Iteration    1(   4)  ---------------------------------------


     EDDAV:  cpu time    0.20: real time    0.20
       DOS:  cpu time    0.00: real time    0.00
    --------------------------------------------
      LOOP:  cpu time    0.20: real time    0.20

 eigenvalue-minimisations  :   740
 total energy-change (2. order) :-0.3271267E-02  (-0.3271136E-02)
 number of electron      24.0000000 magnetization 
 augmentation part       24.0000000 magnetization 

 Free energy of the ion-electron system (eV)
  ---------------------------------------------------
  alpha Z        PSCENC =        59.64982895
  Ewald energy   TEWEN  =      -484.56382983
  -1/2 Hartree   DENC   =       -22.55400904
  -exchange  EXHF       =         0.00000000
  -V(xc)+E(xc)   XCENC  =      -155.28695347
  PAW double counting   =       330.10196642     -140.54714835
  entropy T*S    EENTRO =        -0.09889954
  eigenvalues    EBANDS =       -78.70517794
  atomic energy  EATOM  =       470.94968008
  ---------------------------------------------------
  free energy    TOTEN  =       -21.05454272 eV

  energy without entropy =      -20.95564318  energy(sigma->0) =      -21.00509295


--------------------------------------------------------------------------------------------------------




----------------------------------------- Iteration    1(   5)  ---------------------------------------


     EDDAV:  cpu time    0.11: real time    0.11
       DOS:  cpu time    0.00: real time    0.00
    CHARGE:  cpu time    0.04: real time    0.05
    MIXING:  cpu time    0.00: real time    0.00
    --------------------------------------------
      LOOP:  cpu time    0.16: real time    0.16

 eigenvalue-minimisations  :   440
 total energy-change (2. order) :-0.2877091E-06  (-0.2876843E-06)
 number of electron      23.9999984 magnetization 
 augmentation part       -4.5022878 magnetization 

 Broyden mixing:
  rms(total) = 0.27846E+00    rms(broyden)= 0.27846E+00
  rms(prec ) = 0.43674E+00
  weight for this iteration     100.00

 Free energy of the ion-electron system (eV)
  ---------------------------------------------------
  alpha Z        PSCENC =        59.64982895
  Ewald energy   TEWEN  =      -484.56382983
  -1/2 Hartree   DENC   =       -22.55400904
  -exchange  EXHF       =         0.00000000
  -V(xc)+E(xc)   XCENC  =      -155.28695347
  PAW double counting   =       330.10196642     -140.54714835
  entropy T*S    EENTRO =        -0.09889954
  eigenvalues    EBANDS =       -78.70517823
  atomic energy  EATOM  =       470.94968008
  ---------------------------------------------------
  free energy    TOTEN  =       -21.05454301 eV

  energy without entropy =      -20.95564347  energy(sigma->0) =      -21.00509324


--------------------------------------------------------------------------------------------------------




----------------------------------------- Iteration    1(   6)  ---------------------------------------


    POTLOK:  cpu time    0.01: real time    0.01
    SETDIJ:  cpu time    0.00: real time    0.00
    EDDIAG:  cpu time    0.04: real time    0.06
  RMM-DIIS:  cpu time    0.07: real time    0.07
    ORTHCH:  cpu time    0.00: real time    0.00
       DOS:  cpu time    0.00: real time    0.00
    CHARGE:  cpu time    0.04: real time    0.04
    MIXING:  cpu time    0.00: real time    0.00
    --------------------------------------------
      LOOP:  cpu time    0.16: real time    0.19

 eigenvalue-minimisations  :   400
 total energy-change (2. order) : 0.8250999E-01  (-0.1347797E-02)
 number of electron      23.9999984 magnetization 
 augmentation part       -4.4983524 magnetization 

 Broyden mixing:
  rms(total) = 0.17270E+00    rms(broyden)= 0.17270E+00
  rms(prec ) = 0.27342E+00
  weight for this iteration     100.00

 eigenvalues of (default mixing * dielectric matrix)
  average eigenvalue GAMMA=   2.6179
  2.6179

 Free energy of the ion-electron system (eV)
  ---------------------------------------------------
  alpha Z        PSCENC =        59.64982895
  Ewald energy   TEWEN  =      -484.56382983
  -1/2 Hartree   DENC   =       -23.00780237
  -exchange  EXHF       =         0.00000000
  -V(xc)+E(xc)   XCENC  =      -154.73374482
  PAW double counting   =       364.46194074     -175.49298049
  entropy T*S    EENTRO =        -0.09890520
  eigenvalues    EBANDS =       -78.13622008
  atomic energy  EATOM  =       470.94968008
  ---------------------------------------------------
  free energy    TOTEN  =       -20.97203302 eV

  energy without entropy =      -20.87312782  energy(sigma->0) =      -20.92258042


--------------------------------------------------------------------------------------------------------




----------------------------------------- Iteration    1(   7)  ---------------------------------------


    POTLOK:  cpu time    0.00: real time    0.01
    SETDIJ:  cpu time    0.00: real time    0.00
    EDDIAG:  cpu time    0.02: real time    0.02
  RMM-DIIS:  cpu time    0.07: real time    0.07
    ORTHCH:  cpu time    0.00: real time    0.00
       DOS:  cpu time    0.00: real time    0.00
    CHARGE:  cpu time    0.04: real time    0.04
[...]
 total energy-change (2. order) :-0.2624043E-03  (-0.5237194E-04)
 number of electron      23.9999984 magnetization 
 augmentation part       -4.4953812 magnetization 

 Broyden mixing:
  rms(total) = 0.19650E-02    rms(broyden)= 0.19650E-02
  rms(prec ) = 0.42668E-02
  weight for this iteration     100.00

 eigenvalues of (default mixing * dielectric matrix)
  average eigenvalue GAMMA=   2.3000
  1.3267  3.0483  2.5249

 Free energy of the ion-electron system (eV)
  ---------------------------------------------------
  alpha Z        PSCENC =        59.64982895
  Ewald energy   TEWEN  =      -484.56382983
  -1/2 Hartree   DENC   =       -24.17918732
  -exchange  EXHF       =         0.00000000
  -V(xc)+E(xc)   XCENC  =      -153.72820798
  PAW double counting   =       420.62772618     -232.49248375
  entropy T*S    EENTRO =        -0.09902267
  eigenvalues    EBANDS =       -77.09431266
  atomic energy  EATOM  =       470.94968008
  ---------------------------------------------------
  free energy    TOTEN  =       -20.92980900 eV

  energy without entropy =      -20.83078633  energy(sigma->0) =      -20.88029767


--------------------------------------------------------------------------------------------------------




----------------------------------------- Iteration    1(   9)  ---------------------------------------


    POTLOK:  cpu time    0.01: real time    0.01
    SETDIJ:  cpu time    0.00: real time    0.00
    EDDIAG:  cpu time    0.02: real time    0.02
  RMM-DIIS:  cpu time    0.10: real time    0.10
    ORTHCH:  cpu time    0.00: real time    0.00
       DOS:  cpu time    0.00: real time    0.00
    --------------------------------------------
      LOOP:  cpu time    0.13: real time    0.13

 eigenvalue-minimisations  :   262
 total energy-change (2. order) :-0.3799128E-04  (-0.7120137E-05)
 number of electron      23.9999984 magnetization 
 augmentation part       -4.4953812 magnetization 

 Free energy of the ion-electron system (eV)
  ---------------------------------------------------
  alpha Z        PSCENC =        59.64982895
  Ewald energy   TEWEN  =      -484.56382983
  -1/2 Hartree   DENC   =       -24.22804115
  -exchange  EXHF       =         0.00000000
  -V(xc)+E(xc)   XCENC  =      -153.71827729
  PAW double counting   =       419.82063706     -231.67632856
  entropy T*S    EENTRO =        -0.09903962
  eigenvalues    EBANDS =       -77.06447663
  atomic energy  EATOM  =       470.94968008
  ---------------------------------------------------
  free energy    TOTEN  =       -20.92984699 eV

  energy without entropy =      -20.83080737  energy(sigma->0) =      -20.88032718


--------------------------------------------------------------------------------------------------------




 average (electrostatic) potential at core
  the test charge radii are     1.2767
  (the norm of the test charge is              1.0000)
       1 -16.4752       2 -16.4752       3 -16.4752       4 -16.4752       5 -16.4752
       6 -16.4752       7 -16.4752       8 -16.4752
 
 
 
 E-fermi :   0.7305     XC(G=0):  -8.8096     alpha+bet : -6.9444


 k-point   1 :       0.0833    0.0833    0.0833
  band No.  band energies     occupation 
      1      -8.7698      2.00000
      2      -5.4293      2.00000
      3      -5.4293      2.00000
      4      -5.4293      2.00000
      5      -4.1834      2.00000
      6      -4.1834      2.00000
      7      -4.1834      2.00000
      8      -0.1162      2.00000
      9      -0.1162      2.00000
     10      -0.1162      2.00000
     11       0.3123      1.99690
     12       0.3123      1.99690
     13       0.3123      1.99690
     14       2.4297      0.00000
     15       3.4640      0.00000
     16       3.4640      0.00000
     17       3.6586      0.00000
     18       3.6586      0.00000
     19       3.6586      0.00000
     20       4.2507      0.00000

 k-point   2 :       0.2500    0.0833    0.0833
  band No.  band energies     occupation 
      1      -8.5396      2.00000
      2      -6.5110      2.00000
      3      -5.3374      2.00000
      4      -5.3374      2.00000
      5      -4.1762      2.00000
      6      -4.1762      2.00000
      7      -2.8337      2.00000
      8      -0.7185      2.00000
      9      -0.7185      2.00000
     10       0.1092      1.99999
     11       0.1092      1.99999
     12       0.1827      1.99989
     13       0.5610      1.76934
     14       1.1966      0.00098
     15       2.6273      0.00000
     16       2.7874      0.00000
     17       3.7714      0.00000
     18       4.4212      0.00000
     19       4.4212      0.00000
     20       4.7267      0.00000

 k-point   3 :       0.4167    0.0833    0.0833
  band No.  band energies     occupation 
      1      -8.0816      2.00000
      2      -7.4018      2.00000
      3      -5.2304      2.00000
      4      -5.2304      2.00000
      5      -4.1850      2.00000
      6      -4.1850      2.00000
      7      -1.4473      2.00000
      8      -1.0609      2.00000
      9      -1.0609      2.00000
     10      -0.2360      2.00000
     11      -0.2360      2.00000
     12      -0.0977      2.00000
     13       0.7873      0.68812
     14       1.0495      0.02408
     15       1.6899      0.00000
     16       1.7561      0.00000
     17       4.0933      0.00000
     18       4.6316      0.00000
     19       5.5546      0.00000
     20       5.9863      0.00000

 k-point   4 :       0.2500    0.2500    0.0833
  band No.  band energies     occupation 
      1      -8.3130      2.00000
      2      -6.3445      2.00000
      3      -6.3445      2.00000
      4      -5.4362      2.00000
      5      -4.0922      2.00000
      6      -3.0607      2.00000
      7      -3.0607      2.00000
      8      -1.1940      2.00000
      9      -0.3797      2.00000
     10      -0.3797      2.00000
     11       0.1161      1.99999
     12       0.4911      1.90954
     13       0.4911      1.90954
     14       0.7377      0.95945
     15       1.8693      0.00000
     16       3.1769      0.00000
     17       4.0979      0.00000
     18       4.6404      0.00000
     19       4.6404      0.00000
     20       5.2806      0.00000

 k-point   5 :       0.4167    0.2500    0.0833
  band No.  band energies     occupation 
      1      -7.8636      2.00000
      2      -7.2011      2.00000
      3      -6.0453      2.00000
      4      -5.6971      2.00000
      5      -3.8451      2.00000
      6      -3.4528      2.00000
      7      -1.9959      2.00000
      8      -1.2240      2.00000
      9      -0.9607      2.00000
     10      -0.8942      2.00000
     11       0.2143      1.99974
     12       0.4907      1.91006
     13       0.7168      1.07742
     14       0.9801      0.07757
     15       1.2873      0.00008
     16       2.3647      0.00000
     17       5.0260      0.00000
     18       5.0614      0.00000
     19       5.5654      0.00000
     20       6.2044      0.00000

 k-point   6 :       0.4167    0.4167    0.0833
  band No.  band energies     occupation 
      1      -7.4352      2.00000
      2      -6.8154      2.00000
      3      -6.8154      2.00000
      4      -6.2851      2.00000
      5      -3.3393      2.00000
      6      -2.6993      2.00000
      7      -2.6993      2.00000
      8      -1.8749      2.00000
      9      -0.9988      2.00000
     10      -0.4751      2.00000
     11      -0.4751      2.00000
     12       0.1736      1.99992
     13       1.5148      0.00000
     14       1.5814      0.00000
     15       1.5814      0.00000
     16       2.4482      0.00000
     17       4.8403      0.00000
     18       5.4952      0.00000
     19       5.8280      0.00000
     20       5.8280      0.00000

 k-point   7 :       0.2500    0.2500    0.2500
  band No.  band energies     occupation 
      1      -8.0916      2.00000
      2      -6.2352      2.00000
      3      -6.2352      2.00000
      4      -6.2352      2.00000
      5      -3.4214      2.00000
      6      -3.4214      2.00000
      7      -3.4214      2.00000
      8      -0.9079      2.00000
      9      -0.4953      2.00000
     10      -0.4953      2.00000
     11      -0.4953      2.00000
     12       0.9609      0.10328
     13       0.9609      0.10328
     14       0.9609      0.10328
     15       2.6582      0.00000
     16       2.6582      0.00000
     17       4.3795      0.00000
     18       4.3795      0.00000
     19       4.3795      0.00000
     20       4.4505      0.00000

 k-point   8 :       0.4167    0.2500    0.2500
  band No.  band energies     occupation 
      1      -7.6556      2.00000
      2      -7.0226      2.00000
      3      -6.1052      2.00000
      4      -6.1052      2.00000
      5      -3.7715      2.00000
      6      -3.7715      2.00000
      7      -2.7016      2.00000
      8      -1.8774      2.00000
      9      -0.4358      2.00000
     10      -0.4358      2.00000
     11       0.6608      1.37815
     12       1.0286      0.03501
     13       1.0286      0.03501
     14       1.3914      0.00000
     15       1.9432      0.00000
     16       1.9884      0.00000
     17       4.8781      0.00000
     18       4.9772      0.00000
     19       5.2561      0.00000
     20       5.2561      0.00000

 k-point   9 :       0.4167    0.4167    0.2500
  band No.  band energies     occupation 
      1      -7.2544      2.00000
      2      -6.7015      2.00000
      3      -6.7015      2.00000
      4      -6.3388      2.00000
      5      -3.8048      2.00000
      6      -3.3967      2.00000
      7      -3.3967      2.00000
      8      -2.7434      2.00000
      9       0.0645      2.00000
     10       0.5197      1.86386
     11       0.5197      1.86386
     12       1.3161      0.00003
     13       1.6580      0.00000
     14       1.6951      0.00000
     15       1.6951      0.00000
     16       2.3633      0.00000
     17       4.7858      0.00000
     18       4.9842      0.00000
     19       5.3529      0.00000
     20       5.3529      0.00000

 k-point  10 :       0.4167    0.4167    0.4167
  band No.  band energies     occupation 
      1      -6.9295      2.00000
      2      -6.5657      2.00000
      3      -6.5657      2.00000
      4      -6.5657      2.00000
      5      -3.9071      2.00000
      6      -3.9071      2.00000
      7      -3.9071      2.00000
      8      -3.5003      2.00000
      9       1.3762      0.00000
     10       1.3762      0.00000
     11       1.3762      0.00000
     12       1.9042      0.00000
     13       1.9042      0.00000
     14       1.9042      0.00000
     15       2.1706      0.00000
     16       2.1706      0.00000
     17       4.0422      0.00000
     18       4.6695      0.00000
     19       4.6695      0.00000
     20       4.6695      0.00000


--------------------------------------------------------------------------------------------------------


 soft charge-density along one line, spin component           1
         0         1         2         3         4         5         6         7         8         9
 total charge-density along one line
 
 pseudopotential strength for first ion, spin component:           1
  6.211   0.144   0.000   0.000   0.000   0.000   0.000   0.000
  0.144  -0.015   0.000   0.000   0.000   0.000   0.000   0.000
  0.000   0.000   1.351  -0.000   0.000  -0.009  -0.000   0.000
  0.000   0.000  -0.000   1.351  -0.000  -0.000  -0.009  -0.000
  0.000   0.000   0.000  -0.000   1.351   0.000  -0.000  -0.009
  0.000   0.000  -0.009  -0.000   0.000   0.011  -0.000   0.000
  0.000   0.000  -0.000  -0.009  -0.000  -0.000   0.011  -0.000
  0.000   0.000   0.000  -0.000  -0.009   0.000  -0.000   0.011
  0.000   0.000   0.000  -0.006   0.000   0.000  -0.000   0.000
 -0.000  -0.000   0.000   0.000  -0.006   0.000   0.000  -0.000
  0.000   0.000   0.000   0.000  -0.000  -0.000   0.000  -0.000
 -0.000  -0.000  -0.006   0.000   0.000  -0.000   0.000   0.000
 -0.000  -0.000  -0.000  -0.000   0.000  -0.000  -0.000   0.000
 total augmentation occupancy for first ion, spin component:           1
  1.704  -0.373   0.000  -0.000  -0.000  -0.000   0.000   0.000  -0.000   0.000  -0.000   0.000   0.000
 -0.373   0.260  -0.000   0.000   0.000  -0.000  -0.000   0.000  -0.000   0.000  -0.000   0.000   0.000
 -0.000  -0.000   0.864  -0.000   0.000  -0.308   0.000   0.000   0.000   0.000   0.000  -0.091   0.000
 -0.000   0.000   0.000   0.864   0.000  -0.000  -0.308  -0.000  -0.091  -0.000   0.000   0.000   0.000
 -0.000  -0.000  -0.000  -0.000   0.864  -0.000   0.000  -0.308   0.000  -0.091   0.000  -0.000  -0.000
 -0.000  -0.000  -0.308  -0.000  -0.000   0.130  -0.000  -0.000   0.000  -0.000   0.000   0.040  -0.000
  0.000   0.000  -0.000  -0.308   0.000  -0.000   0.130  -0.000   0.040  -0.000  -0.000  -0.000  -0.000
  0.000   0.000  -0.000  -0.000  -0.308  -0.000  -0.000   0.130   0.000   0.040   0.000  -0.000   0.000
 -0.000   0.000   0.000  -0.091   0.000  -0.000   0.040   0.000   0.023  -0.000  -0.000  -0.000  -0.000
 -0.000   0.000  -0.000  -0.000  -0.091   0.000  -0.000   0.040  -0.000   0.023   0.000   0.000  -0.000
  0.000  -0.000   0.000  -0.000  -0.000  -0.000   0.000  -0.000  -0.000  -0.000   0.009   0.000   0.000
 -0.000  -0.000  -0.091  -0.000  -0.000   0.040  -0.000   0.000  -0.000   0.000   0.000   0.023  -0.000
 -0.000  -0.000   0.000  -0.000   0.000   0.000  -0.000  -0.000  -0.000  -0.000   0.000   0.000   0.009


------------------------ aborting loop because EDIFF is reached ----------------------------------------


    CHARGE:  cpu time    0.04: real time    0.04
    FORLOC:  cpu time    0.00: real time    0.00
    FORNL :  cpu time    0.05: real time    0.05
    STRESS:  cpu time    0.22: real time    0.23
    FORCOR:  cpu time    0.01: real time    0.01
    FORHAR:  cpu time    0.00: real time    0.00
    MIXING:  cpu time    0.00: real time    0.00

  FORCE on cell =-STRESS in cart. coord.  units (eV):
  Direction    XX          YY          ZZ          XY          YZ          ZX
  --------------------------------------------------------------------------------------
  Alpha Z    59.64983    59.64983    59.64983
  Ewald    -161.52155  -161.52155  -161.52155    -0.00000     0.00000    -0.00000
  Hartree     8.08090     8.08090     8.08090    -0.00000    -0.00000    -0.00000
  E(xc)     -85.62430   -85.62430   -85.62430     0.00000     0.00000     0.00000
  Local     -26.52440   -26.52440   -26.52440    -0.00000    -0.00000    -0.00000
  n-local    37.20733    37.07129    36.73740     0.67604     0.95188     0.79334
  augment    29.84305    29.84305    29.84305    -0.00000    -0.00000     0.00000
  Kinetic   134.88641   137.25489   155.10273     2.84142     8.22677     4.12311
  Fock        0.00000     0.00000     0.00000     0.00000     0.00000     0.00000
  -------------------------------------------------------------------------------------
  Total       3.32355     3.32355     3.32355     0.00000    -0.00000    -0.00000
  in kB      27.82260    27.82260    27.82260     0.00000    -0.00000    -0.00000
  external pressure =       27.82 kB  Pullay stress =        0.00 kB


 VOLUME and BASIS-vectors are now :
 -----------------------------------------------------------------------------
  energy-cutoff  :      400.00
  volume of cell :      191.39
      direct lattice vectors                 reciprocal lattice vectors
     5.762863000  0.000000000  0.000000000     0.173524861  0.000000000  0.000000000
     0.000000000  5.762863000  0.000000000     0.000000000  0.173524861  0.000000000
     0.000000000  0.000000000  5.762863000     0.000000000  0.000000000  0.173524861

  length of vectors
     5.762863000  5.762863000  5.762863000     0.173524861  0.173524861  0.173524861


 FORCES acting on ions
    electron-ion (+dipol)            ewald-force                    non-local-force                 convergence-correction
 -----------------------------------------------------------------------------------------------
   0.308E-13 0.113E-12 -.107E-12   -.355E-14 0.000E+00 -.178E-14   -.106E-16 -.325E-17 0.108E-16   0.478E-15 0.522E-14 0.462E-14
   -.370E-14 -.656E-14 -.726E-13   0.388E-14 -.205E-14 -.355E-14   0.976E-17 -.889E-17 -.369E-17   0.126E-14 0.163E-14 0.601E-14
   0.222E-13 0.615E-13 0.505E-13   -.355E-14 0.000E+00 -.178E-14   0.347E-17 0.499E-17 0.195E-17   -.564E-15 -.574E-14 -.266E-14
   -.203E-13 0.843E-13 -.877E-14   0.362E-14 -.178E-14 -.369E-14   -.282E-17 0.176E-16 -.911E-17   -.494E-16 -.294E-14 -.502E-14
   0.247E-13 -.311E-13 -.482E-14   -.178E-14 0.178E-14 0.355E-14   0.434E-18 0.158E-16 0.369E-17   -.350E-15 0.516E-14 -.282E-14
   -.203E-13 -.647E-16 0.462E-14   0.357E-14 0.219E-15 0.164E-14   0.585E-17 0.542E-17 -.165E-16   0.219E-16 0.161E-14 -.536E-14
   0.210E-13 -.325E-13 0.103E-13   -.355E-14 0.178E-14 0.355E-14   0.629E-17 -.102E-16 0.607E-17   -.828E-15 -.351E-14 0.418E-14
   -.154E-13 0.588E-14 -.801E-15   0.177E-14 0.866E-17 0.175E-14   0.629E-17 -.369E-17 -.195E-17   0.104E-14 -.239E-14 0.415E-14
 -----------------------------------------------------------------------------------------------
   0.388E-13 0.195E-12 -.129E-12   0.404E-15 -.435E-16 -.286E-15   0.186E-16 0.178E-16 -.867E-17   0.101E-14 -.966E-15 0.310E-14
 
 
 POSITION                                       TOTAL-FORCE (eV/Angst)
 -----------------------------------------------------------------------------------
      4.32215      4.32215      4.32215         0.000000      0.000000      0.000000
      2.88143      0.00000      0.00000         0.000000      0.000000     -0.000000
      4.32215      1.44072      1.44072         0.000000      0.000000      0.000000
      2.88143      2.88143      2.88143        -0.000000     -0.000000     -0.000000
      1.44072      4.32215      1.44072        -0.000000     -0.000000      0.000000
      0.00000      0.00000      2.88143        -0.000000     -0.000000     -0.000000
      1.44072      1.44072      4.32215         0.000000     -0.000000      0.000000
      0.00000      2.88143      0.00000         0.000000      0.000000     -0.000000
 -----------------------------------------------------------------------------------
    total drift:                                0.000000      0.000000     -0.000000


--------------------------------------------------------------------------------------------------------



  FREE ENERGIE OF THE ION-ELECTRON SYSTEM (eV)
  ---------------------------------------------------
  free  energy   TOTEN  =       -20.92984699 eV

  energy  without entropy=      -20.83080737  energy(sigma->0) =      -20.88032718
 


--------------------------------------------------------------------------------------------------------


    POTLOK:  cpu time    0.02: real time    0.03


--------------------------------------------------------------------------------------------------------


     LOOP+:  cpu time    1.75: real time    1.81
    4ORBIT:  cpu time    0.00: real time    0.00

 total amount of memory used by VASP on root node    36504. kBytes
========================================================================

   base      :      30000. kBytes
   nonl-proj :       4088. kBytes
   fftplans  :        421. kBytes
   grid      :       1352. kBytes
   one-center:         64. kBytes
   wavefun   :        579. kBytes
 
  
  
 General timing and accounting informations for this job:
 ========================================================
  
                  Total CPU time used (sec):        3.935
                            User time (sec):        3.789
                          System time (sec):        0.146
                         Elapsed time (sec):        4.316
  
                   Maximum memory used (kb):       57772.
                   Average memory used (kb):           0.
  
                          Minor page faults:        15209
                          Major page faults:            0
                 Voluntary context switches:         7586
