<?xml version="1.0" encoding="ISO-8859-1"?>
<modeling>
 <generator>
  <i name="program" type="string">vasp </i>
  <i name="version" type="string">5.3.3  </i>
  <i name="subversion" type="string">18Dez12 (build Dec 13 2014 13:36:02) complex                          parallel </i>
  <i name="platform" type="string">LinuxIFC </i>
  <i name="date" type="string">2018 11 27 </i>
  <i name="time" type="string">23:21:41 </i>
 </generator>
 <incar>
  <i type="string" name="PREC">normal</i>
  <i type="string" name="ALGO"> Fast</i>
  <i type="int" name="ISPIN">     1</i>
  <i type="int" name="IBRION">    -1</i>
  <i type="int" name="NSW">     0</i>
  <i type="int" name="ISYM">     1</i>
  <i name="ENCUT">    400.00000000</i>
  <i type="int" name="ISMEAR">     0</i>
  <i name="SIGMA">      0.20000000</i>
  <i type="logical" name="LWAVE"> F  </i>
  <i type="logical" name="LCHARG"> F  </i>
 </incar>
 <kpoints>
  <generation param="Monkhorst-Pack">
   <v type="int" name="divisions">       6        6        6 </v>
   <v name="usershift">      0.00000000       0.00000000       0.00000000 </v>
   <v name="genvec1">      0.16666667       0.00000000       0.00000000 </v>
   <v name="genvec2">      0.00000000       0.16666667       0.00000000 </v>
   <v name="genvec3">      0.00000000       0.00000000       0.16666667 </v>
   <v name="shift">      0.50000000       0.50000000       0.50000000 </v>
  </generation>
  <varray name="kpointlist" >
   <v>       0.08333333       0.08333333       0.08333333 </v>
   <v>       0.25000000       0.08333333       0.08333333 </v>
   <v>       0.41666667       0.08333333       0.08333333 </v>
   <v>       0.25000000       0.25000000       0.08333333 </v>
   <v>       0.41666667       0.25000000       0.08333333 </v>
   <v>       0.41666667       0.41666667       0.08333333 </v>
   <v>       0.25000000       0.25000000       0.25000000 </v>
   <v>       0.41666667       0.25000000       0.25000000 </v>
   <v>       0.41666667       0.41666667       0.25000000 </v>
   <v>       0.41666667       0.41666667       0.41666667 </v>
  </varray>
  <varray name="weights" >
   <v>       0.03703704 </v>
   <v>       0.11111111 </v>
   <v>       0.11111111 </v>
   <v>       0.11111111 </v>
   <v>       0.22222222 </v>
   <v>       0.11111111 </v>
   <v>       0.03703704 </v>
   <v>       0.11111111 </v>
   <v>       0.11111111 </v>
   <v>       0.03703704 </v>
  </varray>
 </kpoints>
 <parameters>
  <separator name="general" >
   <i type="string" name="SYSTEM">unknown system</i>
   <i type="logical" name="LCOMPAT"> F  </i>
  </separator>
  <separator name="electronic" >
   <i type="string" name="PREC">normal</i>
   <i name="ENMAX">    400.00000000</i>
   <i name="ENAUG">    320.26400000</i>
   <i name="EDIFF">      0.00010000</i>
   <i type="int" name="IALGO">    68</i>
   <i type="int" name="IWAVPR">    10</i>
   <i type="int" name="NBANDS">    20</i>
   <i name="NELECT">     24.00000000</i>
   <i type="int" name="TURBO">     0</i>
   <i type="int" name="IRESTART">     0</i>
   <i type="int" name="NREBOOT">     0</i>
   <i type="int" name="NMIN">     0</i>
   <i name="EREF">      0.00000000</i>
   <separator name="electronic smearing" >
    <i type="int" name="ISMEAR">     0</i>
    <i name="SIGMA">      0.20000000</i>
    <i name="KSPACING">      0.50000000</i>
    <i type="logical" name="KGAMMA"> T  </i>
   </separator>
   <separator name="electronic projectors" >
    <i type="logical" name="LREAL"> F  </i>
    <v name="ROPT">      0.00000000</v>
    <i type="int" name="LMAXPAW">  -100</i>
    <i type="int" name="LMAXMIX">     2</i>
    <i type="logical" name="NLSPLINE"> F  </i>
   </separator>
   <separator name="electronic startup" >
    <i type="int" name="ISTART">     0</i>
    <i type="int" name="ICHARG">     2</i>
    <i type="int" name="INIWAV">     1</i>
   </separator>
   <separator name="electronic spin" >
    <i type="int" name="ISPIN">     1</i>
    <i type="logical" name="LNONCOLLINEAR"> F  </i>
    <v name="MAGMOM">      1.00000000      1.00000000      1.00000000      1.00000000      1.00000000      1.00000000      1.00000000      1.00000000</v>
    <i name="NUPDOWN">     -1.00000000</i>
    <i type="logical" name="LSORBIT"> F  </i>
    <v name="SAXIS">      0.00000000      0.00000000      1.00000000</v>
    <i type="logical" name="LSPIRAL"> F  </i>
    <v name="QSPIRAL">      0.00000000      0.00000000      0.00000000</v>
    <i type="logical" name="LZEROZ"> F  </i>
   </separator>
   <separator name="electronic exchange-correlation" >
    <i type="logical" name="LASPH"> F  </i>
    <i type="logical" name="LMETAGGA"> F  </i>
   </separator>
   <separator name="electronic convergence" >
    <i type="int" name="NELM">    60</i>
    <i type="int" name="NELMDL">    -5</i>
    <i type="int" name="NELMIN">     2</i>
    <i name="ENINI">    400.00000000</i>
    <separator name="electronic convergence detail" >
     <i type="logical" name="LDIAG"> T  </i>
     <i type="logical" name="LSUBROT"> T  </i>
     <i name="WEIMIN">      0.00000000</i>
     <i name="EBREAK">      0.00000125</i>
     <i name="DEPER">      0.30000000</i>
     <i type="int" name="NRMM">     4</i>
     <i name="TIME">      0.40000000</i>
    </separator>
   </separator>
   <separator name="electronic mixer" >
    <i name="AMIX">      0.40000000</i>
    <i name="BMIX">      1.00000000</i>
    <i name="AMIN">      0.10000000</i>
    <i name="AMIX_MAG">      1.60000000</i>
    <i name="BMIX_MAG">      1.00000000</i>
    <separator name="electronic mixer details" >
     <i type="int" name="IMIX">     4</i>
     <i type="int" name="MAXMIX">   -45</i>
     <i name="WC">    100.00000000</i>
     <i type="int" name="INIMIX">     1</i>
     <i type="int" name="MIXPRE">     1</i>
     <i type="int" name="MREMOVE">     5</i>
    </separator>
   </separator>
   <separator name="electronic dipolcorrection" >
    <i type="logical" name="LDIPOL"> F  </i>
    <i type="logical" name="LMONO"> F  </i>
    <i type="int" name="IDIPOL">     0</i>
    <i name="EPSILON">      1.00000000</i>
    <v name="DIPOL">   -100.00000000   -100.00000000   -100.00000000</v>
    <i name="EFIELD">      0.00000000</i>
   </separator>
  </separator>
  <separator name="grids" >
   <i type="int" name="NGX">    28</i>
   <i type="int" name="NGY">    28</i>
   <i type="int" name="NGZ">    28</i>
   <i type="int" name="NGXF">    56</i>
   <i type="int" name="NGYF">    56</i>
   <i type="int" name="NGZF">    56</i>
   <i type="logical" name="ADDGRID"> F  </i>
  </separator>
  <separator name="ionic" >
   <i type="int" name="NSW">     0</i>
   <i type="int" name="IBRION">    -1</i>
   <i type="int" name="ISIF">     2</i>
   <i name="PSTRESS">      0.00000000</i>
   <i name="EDIFFG">      0.00100000</i>
   <i type="int" name="NFREE">     0</i>
   <i name="POTIM">      0.50000000</i>
   <i name="SMASS">     -3.00000000</i>
   <i name="SCALEE">      1.00000000</i>
  </separator>
  <separator name="ionic md" >
   <i name="TEBEG">      0.00010000</i>
   <i name="TEEND">      0.00010000</i>
   <i type="int" name="NBLOCK">     1</i>
   <i type="int" name="KBLOCK">     1</i>
   <i type="int" name="NPACO">   256</i>
   <i name="APACO">     16.00000000</i>
  </separator>
  <separator name="symmetry" >
   <i type="int" name="ISYM">     1</i>
   <i name="SYMPREC">      0.00001000</i>
  </separator>
  <separator name="dos" >
   <i type="logical" name="LORBIT"> F  </i>
   <v name="RWIGS">     -1.00000000</v>
   <i type="int" name="NEDOS">   301</i>
   <i name="EMIN">     10.00000000</i>
   <i name="EMAX">    -10.00000000</i>
   <i name="EFERMI">      0.00000000</i>
  </separator>
  <separator name="writing" >
   <i type="int" name="NWRITE">     2</i>
   <i type="logical" name="LWAVE"> F  </i>
   <i type="logical" name="LCHARG"> F  </i>
   <i type="logical" name="LPARD"> F  </i>
   <i type="logical" name="LVTOT"> F  </i>
   <i type="logical" name="LVHAR"> F  </i>
   <i type="logical" name="LELF"> F  </i>
   <i type="logical" name="LOPTICS"> F  </i>
   <v name="STM">      0.00000000      0.00000000      0.00000000      0.00000000      0.00000000      0.00000000      0.00000000</v>
  </separator>
  <separator name="performance" >
   <i type="int" name="NPAR">    20</i>
   <i type="int" name="NSIM">     4</i>
   <i type="int" name="NBLK">    -1</i>
   <i type="logical" name="LPLANE"> T  </i>
   <i type="logical" name="LSCALAPACK"> T  </i>
   <i type="logical" name="LSCAAWARE"> F  </i>
   <i type="logical" name="LSCALU"> F  </i>
   <i type="logical" name="LASYNC"> F  </i>
   <i type="logical" name="LORBITALREAL"> F  </i>
  </separator>
  <separator name="miscellaneous" >
   <i type="int" name="IDIOT">     3</i>
   <i type="logical" name="LMUSIC"> F  </i>
   <v name="POMASS">     69.72300000</v>
   <v name="DARWINR">      0.00000000</v>
   <v name="DARWINV">      1.00000000</v>
   <i type="logical" name="LCORR"> T  </i>
  </separator>
  <i type="logical" name="GGA_COMPAT"> T  </i>
  <i type="logical" name="LBERRY"> F  </i>
  <i type="int" name="ICORELEVEL">     0</i>
  <i type="logical" name="LDAU"> F  </i>
  <i type="int" name="I_CONSTRAINED_M">     0</i>
  <separator name="electronic exchange-correlation" >
   <i type="string" name="GGA">--</i>
   <i type="int" name="VOSKOWN">     0</i>
   <i type="logical" name="LHFCALC"> F  </i>
   <i type="string" name="PRECFOCK"></i>
   <i type="logical" name="LSYMGRAD"> F  </i>
   <i type="logical" name="LHFONE"> F  </i>
   <i type="logical" name="LRHFCALC"> F  </i>
   <i type="logical" name="LTHOMAS"> F  </i>
   <i type="logical" name="LMODELHF"> F  </i>
   <i name="ENCUT4O">     -1.00000000</i>
   <i type="int" name="EXXOEP">     0</i>
   <i type="int" name="FOURORBIT">     0</i>
   <i name="AEXX">      0.00000000</i>
   <i name="HFALPHA">      0.00000000</i>
   <i name="MCALPHA">      0.00000000</i>
   <i name="ALDAX">      1.00000000</i>
   <i name="AGGAX">      1.00000000</i>
   <i name="ALDAC">      1.00000000</i>
   <i name="AGGAC">      1.00000000</i>
   <i type="int" name="NKREDX">     1</i>
   <i type="int" name="NKREDY">     1</i>
   <i type="int" name="NKREDZ">     1</i>
   <i type="logical" name="SHIFTRED"> F  </i>
   <i type="logical" name="ODDONLY"> F  </i>
   <i type="logical" name="EVENONLY"> F  </i>
   <i type="int" name="LMAXFOCK">     0</i>
   <i type="int" name="NMAXFOCKAE">     0</i>
   <i type="logical" name="LFOCKAEDFT"> F  </i>
   <i name="HFSCREEN">      0.00000000</i>
   <i name="HFSCREENC">      0.00000000</i>
   <i type="int" name="NBANDSGWLOW">     0</i>
  </separator>
  <separator name="vdW DFT" >
   <i type="logical" name="LUSE_VDW"> F  </i>
   <i name="Zab_VDW">     -0.84910000</i>
   <i name="PARAM1">      0.12340000</i>
   <i name="PARAM2">      1.00000000</i>
   <i name="PARAM3">      0.00000000</i>
  </separator>
  <separator name="model GW" >
   <i type="int" name="MODEL_GW">     0</i>
   <i name="MODEL_EPS0">     14.35410601</i>
   <i name="MODEL_ALPHA">      1.00000000</i>
  </separator>
  <separator name="linear response parameters" >
   <i type="logical" name="LEPSILON"> F  </i>
   <i type="logical" name="LRPA"> F  </i>
   <i type="logical" name="LNABLA"> F  </i>
   <i type="logical" name="LVEL"> F  </i>
   <i type="int" name="KINTER">     0</i>
   <i name="CSHIFT">      0.10000000</i>
   <i name="OMEGAMAX">     -1.00000000</i>
   <i name="DEG_THRESHOLD">      0.00200000</i>
  </separator>
  <separator name="orbital magnetization" >
   <i type="logical" name="NUCIND"> F  </i>
   <v name="MAGPOS">      0.00000000      0.00000000      0.00000000</v>
   <i type="logical" name="LNICSALL"> T  </i>
   <i type="logical" name="ORBITALMAG"> F  </i>
   <i type="logical" name="LMAGBLOCH"> F  </i>
   <i type="logical" name="LCHIMAG"> F  </i>
   <i type="logical" name="LGAUGE"> T  </i>
   <i type="int" name="MAGATOM">     0</i>
   <v name="MAGDIPOL">      0.00000000      0.00000000      0.00000000</v>
   <v name="AVECCONST">      0.00000000      0.00000000      0.00000000</v>
  </separator>
  <separator name="response functions" >
   <i type="logical" name="LADDER"> F  </i>
   <i type="logical" name="LFXC"> F  </i>
   <i type="logical" name="LHARTREE"> T  </i>
   <i type="int" name="IBSE">     0</i>
   <i type="logical" name="LTCTE"> F  </i>
   <i type="logical" name="LTETE"> F  </i>
   <i type="logical" name="LTRIPLET"> F  </i>
   <i type="logical" name="LFXCEPS"> F  </i>
   <i type="logical" name="L2ORDER"> F  </i>
   <i type="logical" name="LUSEW"> F  </i>
   <i name="ENCUTGW">     -2.00000000</i>
   <i name="ENCUTGWSOFT">     -2.00000000</i>
   <i name="ENCUTLF">     -1.00000000</i>
   <i type="int" name="LMAXMP2">    -1</i>
   <i name="SCISSOR">      0.00000000</i>
   <i type="int" name="NOMEGA">     0</i>
   <i type="int" name="NOMEGAR">     0</i>
   <i type="int" name="NBANDSGW">    -1</i>
   <i type="int" name="NBANDSO">    -1</i>
   <i type="int" name="NBANDSV">    -1</i>
   <i type="int" name="NELM">     1</i>
   <i type="int" name="DIM">     3</i>
   <i type="int" name="ANTIRES">     0</i>
   <i name="OMEGAMAX">    -30.00000000</i>
   <i name="OMEGATL">   -200.00000000</i>
   <i type="int" name="OMEGAGRID">     0</i>
   <i name="CSHIFT">     -0.10000000</i>
   <i type="logical" name="SELFENERGY"> F  </i>
   <i type="logical" name="LSPECTRAL"> F  </i>
   <i type="logical" name="ODDONLYGW"> F  </i>
   <i type="logical" name="EVENONLYGW"> F  </i>
   <i type="int" name="NKREDLFX">     1</i>
   <i type="int" name="NKREDLFY">     1</i>
   <i type="int" name="NKREDLFZ">     1</i>
   <i type="int" name="MAXMEM">  1800</i>
   <i type="int" name="TELESCOPE">     0</i>
  </separator>
 </parameters>
 <atominfo>
  <atoms>       8 </atoms>
  <types>       1 </types>
  <array name="atoms" >
   <dimension dim="1">ion</dimension>
   <field type="string">element</field>
   <field type="int">atomtype</field>
   <set>
    <rc><c>Ga</c><c>   1</c></rc>
    <rc><c>Ga</c><c>   1</c></rc>
    <rc><c>Ga</c><c>   1</c></rc>
    <rc><c>Ga</c><c>   1</c></rc>
    <rc><c>Ga</c><c>   1</c></rc>
    <rc><c>Ga</c><c>   1</c></rc>
    <rc><c>Ga</c><c>   1</c></rc>
    <rc><c>Ga</c><c>   1</c></rc>
   </set>
  </array>
  <array name="atomtypes" >
   <dimension dim="1">type</dimension>
   <field type="int">atomspertype</field>
   <field type="string">element</field>
   <field>mass</field>
   <field>valence</field>
   <field type="string">pseudopotential</field>
   <set>
    <rc><c>   8</c><c>Ga</c><c>     69.72300000</c><c>      3.00000000</c><c> PAW_PBE Ga 08Apr2002                   </c></rc>
   </set>
  </array>
 </atominfo>
 <structure name="initialpos" >
  <crystal>
   <varray name="basis" >
    <v>       5.76286300       0.00000000       0.00000000 </v>
    <v>       0.00000000       5.76286300       0.00000000 </v>
    <v>       0.00000000       0.00000000       5.76286300 </v>
   </varray>
   <i name="volume">    191.38808007 </i>
   <varray name="rec_basis" >
    <v>       0.17352486       0.00000000       0.00000000 </v>
    <v>       0.00000000       0.17352486       0.00000000 </v>
    <v>       0.00000000       0.00000000       0.17352486 </v>
   </varray>
  </crystal>
  <varray name="positions" >
   <v>       0.75000000       0.75000000       0.75000000 </v>
   <v>       0.50000000       0.00000000       0.00000000 </v>
   <v>       0.75000000       0.25000000       0.25000000 </v>
   <v>       0.50000000       0.50000000       0.50000000 </v>
   <v>       0.25000000       0.75000000       0.25000000 </v>
   <v>       0.00000000       0.00000000       0.50000000 </v>
   <v>       0.25000000       0.25000000       0.75000000 </v>
   <v>       0.00000000       0.50000000       0.00000000 </v>
  </varray>
 </structure>
 <calculation>
  <scstep>
   <time name="dav">    0.10    0.11</time>
   <time name="total">    0.13    0.15</time>
   <energy>
    <i name="alphaZ">     59.64982895 </i>
    <i name="ewald">   -484.56382983 </i>
    <i name="hartreedc">    -22.55400904 </i>
    <i name="XCdc">   -155.28695347 </i>
    <i name="pawpsdc">    330.10196642 </i>
    <i name="pawaedc">   -140.54714835 </i>
    <i name="eentropy">     -0.05504695 </i>
    <i name="bandstr">    -10.43004621 </i>
    <i name="atom">    470.94968008 </i>
    <i name="e_fr_energy">     47.26444160 </i>
    <i name="e_wo_entrp">     47.31948855 </i>
    <i name="e_0_energy">     47.29196507 </i>
   </energy>
  </scstep>
  <scstep>
   <time name="dav">    0.16    0.17</time>
   <time name="total">    0.17    0.17</time>
   <energy>
    <i name="e_fr_energy">    -19.79937392 </i>
    <i name="e_wo_entrp">    -19.69886299 </i>
    <i name="e_0_energy">    -19.74911846 </i>
   </energy>
  </scstep>
  <scstep>
   <time name="dav">    0.12    0.12</time>
   <time name="total">    0.12    0.12</time>
   <energy>
    <i name="e_fr_energy">    -21.05127145 </i>
    <i name="e_wo_entrp">    -20.95241074 </i>
    <i name="e_0_energy">    -21.00184110 </i>
   </energy>
  </scstep>
  <scstep>
   <time name="dav">    0.20    0.20</time>
   <time name="total">    0.20    0.20</time>
   <energy>
    <i name="e_fr_energy">    -21.05454272 </i>
    <i name="e_wo_entrp">    -20.95564318 </i>
    <i name="e_0_energy">    -21.00509295 </i>
   </energy>
  </scstep>
  <scstep>
   <time name="dav">    0.11    0.11</time>
   <time name="total">    0.16    0.16</time>
   <energy>
    <i name="e_fr_energy">    -21.05454301 </i>
    <i name="e_wo_entrp">    -20.95564347 </i>
    <i name="e_0_energy">    -21.00509324 </i>
   </energy>
  </scstep>
  <scstep>
   <time name="diag">    0.04    0.06</time>
   <time name="diis">    0.07    0.07</time>
   <time name="orth">    0.00    0.00</time>
   <time name="total">    0.16    0.19</time>
   <energy>
    <i name="e_fr_energy">    -20.97203302 </i>
    <i name="e_wo_entrp">    -20.87312782 </i>
    <i name="e_0_energy">    -20.92258042 </i>
   </energy>
  </scstep>
  <scstep>
   <time name="diag">    0.02    0.02</time>
   <time name="diis">    0.07    0.07</time>
   <time name="orth">    0.00    0.00</time>
   <time name="total">    0.15    0.15</time>
   <energy>
    <i name="e_fr_energy">    -20.92954660 </i>
    <i name="e_wo_entrp">    -20.83057634 </i>
    <i name="e_0_energy">    -20.88006147 </i>
   </energy>
  </scstep>
  <scstep>
   <time name="diag">    0.02    0.02</time>
   <time name="diis">    0.10    0.10</time>
   <time name="orth">    0.00    0.00</time>
   <time name="total">    0.17    0.17</time>
   <energy>
    <i name="e_fr_energy">    -20.92980900 </i>
    <i name="e_wo_entrp">    -20.83078633 </i>
    <i name="e_0_energy">    -20.88029767 </i>
   </energy>
  </scstep>
  <scstep>
   <time name="diag">    0.02    0.02</time>
   <time name="diis">    0.10    0.10</time>
   <time name="orth">    0.00    0.00</time>
   <time name="total">    0.13    0.13</time>
   <energy>
    <i name="alphaZ">     59.64982895 </i>
    <i name="ewald">   -484.56382983 </i>
    <i name="hartreedc">    -24.22804115 </i>
    <i name="XCdc">   -153.71827729 </i>
    <i name="pawpsdc">    419.82063706 </i>
    <i name="pawaedc">   -231.67632856 </i>
    <i name="eentropy">     -0.09903962 </i>
    <i name="bandstr">    -77.06447663 </i>
    <i name="atom">    470.94968008 </i>
    <i name="e_fr_energy">    -20.92984699 </i>
    <i name="e_wo_entrp">    -20.83080737 </i>
    <i name="e_0_energy">    -20.88032718 </i>
   </energy>
  </scstep>
  <structure>
   <crystal>
    <varray name="basis" >
     <v>       5.76286300       0.00000000       0.00000000 </v>
     <v>       0.00000000       5.76286300       0.00000000 </v>
     <v>       0.00000000       0.00000000       5.76286300 </v>
    </varray>
    <i name="volume">    191.38808007 </i>
    <varray name="rec_basis" >
     <v>       0.17352486       0.00000000       0.00000000 </v>
     <v>       0.00000000       0.17352486       0.00000000 </v>
     <v>       0.00000000       0.00000000       0.17352486 </v>
    </varray>
   </crystal>
   <varray name="positions" >
    <v>       0.75000000       0.75000000       0.75000000 </v>
    <v>       0.50000000       0.00000000       0.00000000 </v>
    <v>       0.75000000       0.25000000       0.25000000 </v>
    <v>       0.50000000       0.50000000       0.50000000 </v>
    <v>       0.25000000       0.75000000       0.25000000 </v>
    <v>       0.00000000       0.00000000       0.50000000 </v>
    <v>       0.25000000       0.25000000       0.75000000 </v>
    <v>       0.00000000       0.50000000       0.00000000 </v>
   </varray>
  </structure>
  <varray name="forces" >
   <v>       0.00000000       0.00000000       0.00000000 </v>
   <v>       0.00000000       0.00000000      -0.00000000 </v>
   <v>       0.00000000       0.00000000       0.00000000 </v>
   <v>      -0.00000000      -0.00000000      -0.00000000 </v>
   <v>      -0.00000000      -0.00000000       0.00000000 </v>
   <v>      -0.00000000      -0.00000000      -0.00000000 </v>
   <v>       0.00000000      -0.00000000       0.00000000 </v>
   <v>       0.00000000       0.00000000      -0.00000000 </v>
  </varray>
  <varray name="stress" >
   <v>      27.82259567      -0.00000000      -0.00000000 </v>
   <v>       0.00000000      27.82259567      -0.00000000 </v>
   <v>      -0.00000000      -0.00000000      27.82259567 </v>
  </varray>
  <energy>
   <i name="e_fr_energy">    -20.92984699 </i>
   <i name="e_wo_entrp">    -20.88032718 </i>
   <i name="e_0_energy">     -0.09903962 </i>
  </energy>
  <time name="totalsc">    1.75    1.81</time>
  <eigenvalues>
   <array>
    <dimension dim="1">band</dimension>
    <dimension dim="2">kpoint</dimension>
    <dimension dim="3">spin</dimension>
    <field>eigene</field>
    <field>occ</field>
    <set>
     <set comment="spin 1">
      <set comment="kpoint 1">
       <r>   -8.7698    1.0000 </r>
       <r>   -5.4293    1.0000 </r>
       <r>   -5.4293    1.0000 </r>
       <r>   -5.4293    1.0000 </r>
       <r>   -4.1834    1.0000 </r>
       <r>   -4.1834    1.0000 </r>
       <r>   -4.1834    1.0000 </r>
       <r>   -0.1162    1.0000 </r>
       <r>   -0.1162    1.0000 </r>
       <r>   -0.1162    1.0000 </r>
       <r>    0.3123    0.9984 </r>
       <r>    0.3123    0.9984 </r>
       <r>    0.3123    0.9984 </r>
       <r>    2.4297    0.0000 </r>
       <r>    3.4640    0.0000 </r>
       <r>    3.4640    0.0000 </r>
       <r>    3.6586    0.0000 </r>
       <r>    3.6586    0.0000 </r>
       <r>    3.6586    0.0000 </r>
       <r>    4.2507    0.0000 </r>
      </set>
      <set comment="kpoint 2">
       <r>   -8.5396    1.0000 </r>
       <r>   -6.5110    1.0000 </r>
       <r>   -5.3374    1.0000 </r>
       <r>   -5.3374    1.0000 </r>
       <r>   -4.1762    1.0000 </r>
       <r>   -4.1762    1.0000 </r>
       <r>   -2.8337    1.0000 </r>
       <r>   -0.7185    1.0000 </r>
       <r>   -0.7185    1.0000 </r>
       <r>    0.1092    1.0000 </r>
       <r>    0.1092    1.0000 </r>
       <r>    0.1827    0.9999 </r>
       <r>    0.5610    0.8847 </r>
       <r>    1.1966    0.0005 </r>
       <r>    2.6273    0.0000 </r>
       <r>    2.7874    0.0000 </r>
       <r>    3.7714    0.0000 </r>
       <r>    4.4212    0.0000 </r>
       <r>    4.4212    0.0000 </r>
       <r>    4.7267    0.0000 </r>
      </set>
      <set comment="kpoint 3">
       <r>   -8.0816    1.0000 </r>
       <r>   -7.4018    1.0000 </r>
       <r>   -5.2304    1.0000 </r>
       <r>   -5.2304    1.0000 </r>
       <r>   -4.1850    1.0000 </r>
       <r>   -4.1850    1.0000 </r>
       <r>   -1.4473    1.0000 </r>
       <r>   -1.0609    1.0000 </r>
       <r>   -1.0609    1.0000 </r>
       <r>   -0.2360    1.0000 </r>
       <r>   -0.2360    1.0000 </r>
       <r>   -0.0977    1.0000 </r>
       <r>    0.7873    0.3441 </r>
       <r>    1.0495    0.0120 </r>
       <r>    1.6899    0.0000 </r>
       <r>    1.7561    0.0000 </r>
       <r>    4.0933    0.0000 </r>
       <r>    4.6316    0.0000 </r>
       <r>    5.5546    0.0000 </r>
       <r>    5.9863    0.0000 </r>
      </set>
      <set comment="kpoint 4">
       <r>   -8.3130    1.0000 </r>
       <r>   -6.3445    1.0000 </r>
       <r>   -6.3445    1.0000 </r>
       <r>   -5.4362    1.0000 </r>
       <r>   -4.0922    1.0000 </r>
       <r>   -3.0607    1.0000 </r>
       <r>   -3.0607    1.0000 </r>
       <r>   -1.1940    1.0000 </r>
       <r>   -0.3797    1.0000 </r>
       <r>   -0.3797    1.0000 </r>
       <r>    0.1161    1.0000 </r>
       <r>    0.4911    0.9548 </r>
       <r>    0.4911    0.9548 </r>
       <r>    0.7377    0.4797 </r>
       <r>    1.8693    0.0000 </r>
       <r>    3.1769    0.0000 </r>
       <r>    4.0979    0.0000 </r>
       <r>    4.6404    0.0000 </r>
       <r>    4.6404    0.0000 </r>
       <r>    5.2806    0.0000 </r>
      </set>
      <set comment="kpoint 5">
       <r>   -7.8636    1.0000 </r>
       <r>   -7.2011    1.0000 </r>
       <r>   -6.0453    1.0000 </r>
       <r>   -5.6971    1.0000 </r>
       <r>   -3.8451    1.0000 </r>
       <r>   -3.4528    1.0000 </r>
       <r>   -1.9959    1.0000 </r>
       <r>   -1.2240    1.0000 </r>
       <r>   -0.9607    1.0000 </r>
       <r>   -0.8942    1.0000 </r>
       <r>    0.2143    0.9999 </r>
       <r>    0.4907    0.9550 </r>
       <r>    0.7168    0.5387 </r>
       <r>    0.9801    0.0388 </r>
       <r>    1.2873    0.0000 </r>
       <r>    2.3647    0.0000 </r>
       <r>    5.0260    0.0000 </r>
       <r>    5.0614    0.0000 </r>
       <r>    5.5654    0.0000 </r>
       <r>    6.2044    0.0000 </r>
      </set>
      <set comment="kpoint 6">
       <r>   -7.4352    1.0000 </r>
       <r>   -6.8154    1.0000 </r>
       <r>   -6.8154    1.0000 </r>
       <r>   -6.2851    1.0000 </r>
       <r>   -3.3393    1.0000 </r>
       <r>   -2.6993    1.0000 </r>
       <r>   -2.6993    1.0000 </r>
       <r>   -1.8749    1.0000 </r>
       <r>   -0.9988    1.0000 </r>
       <r>   -0.4751    1.0000 </r>
       <r>   -0.4751    1.0000 </r>
       <r>    0.1736    1.0000 </r>
       <r>    1.5148    0.0000 </r>
       <r>    1.5814    0.0000 </r>
       <r>    1.5814    0.0000 </r>
       <r>    2.4482    0.0000 </r>
       <r>    4.8403    0.0000 </r>
       <r>    5.4952    0.0000 </r>
       <r>    5.8280    0.0000 </r>
       <r>    5.8280    0.0000 </r>
      </set>
      <set comment="kpoint 7">
       <r>   -8.0916    1.0000 </r>
       <r>   -6.2352    1.0000 </r>
       <r>   -6.2352    1.0000 </r>
       <r>   -6.2352    1.0000 </r>
       <r>   -3.4214    1.0000 </r>
       <r>   -3.4214    1.0000 </r>
       <r>   -3.4214    1.0000 </r>
       <r>   -0.9079    1.0000 </r>
       <r>   -0.4953    1.0000 </r>
       <r>   -0.4953    1.0000 </r>
       <r>   -0.4953    1.0000 </r>
       <r>    0.9609    0.0516 </r>
       <r>    0.9609    0.0516 </r>
       <r>    0.9609    0.0516 </r>
       <r>    2.6582    0.0000 </r>
       <r>    2.6582    0.0000 </r>
       <r>    4.3795    0.0000 </r>
       <r>    4.3795    0.0000 </r>
       <r>    4.3795    0.0000 </r>
       <r>    4.4505    0.0000 </r>
      </set>
      <set comment="kpoint 8">
       <r>   -7.6556    1.0000 </r>
       <r>   -7.0226    1.0000 </r>
       <r>   -6.1052    1.0000 </r>
       <r>   -6.1052    1.0000 </r>
       <r>   -3.7715    1.0000 </r>
       <r>   -3.7715    1.0000 </r>
       <r>   -2.7016    1.0000 </r>
       <r>   -1.8774    1.0000 </r>
       <r>   -0.4358    1.0000 </r>
       <r>   -0.4358    1.0000 </r>
       <r>    0.6608    0.6891 </r>
       <r>    1.0286    0.0175 </r>
       <r>    1.0286    0.0175 </r>
       <r>    1.3914    0.0000 </r>
       <r>    1.9432    0.0000 </r>
       <r>    1.9884    0.0000 </r>
       <r>    4.8781    0.0000 </r>
       <r>    4.9772    0.0000 </r>
       <r>    5.2561    0.0000 </r>
       <r>    5.2561    0.0000 </r>
      </set>
      <set comment="kpoint 9">
       <r>   -7.2544    1.0000 </r>
       <r>   -6.7015    1.0000 </r>
       <r>   -6.7015    1.0000 </r>
       <r>   -6.3388    1.0000 </r>
       <r>   -3.8048    1.0000 </r>
       <r>   -3.3967    1.0000 </r>
       <r>   -3.3967    1.0000 </r>
       <r>   -2.7434    1.0000 </r>
       <r>    0.0645    1.0000 </r>
       <r>    0.5197    0.9319 </r>
       <r>    0.5197    0.9319 </r>
       <r>    1.3161    0.0000 </r>
       <r>    1.6580    0.0000 </r>
       <r>    1.6951    0.0000 </r>
       <r>    1.6951    0.0000 </r>
       <r>    2.3633    0.0000 </r>
       <r>    4.7858    0.0000 </r>
       <r>    4.9842    0.0000 </r>
       <r>    5.3529    0.0000 </r>
       <r>    5.3529    0.0000 </r>
      </set>
      <set comment="kpoint 10">
       <r>   -6.9295    1.0000 </r>
       <r>   -6.5657    1.0000 </r>
       <r>   -6.5657    1.0000 </r>
       <r>   -6.5657    1.0000 </r>
       <r>   -3.9071    1.0000 </r>
       <r>   -3.9071    1.0000 </r>
       <r>   -3.9071    1.0000 </r>
       <r>   -3.5003    1.0000 </r>
       <r>    1.3762    0.0000 </r>
       <r>    1.3762    0.0000 </r>
       <r>    1.3762    0.0000 </r>
       <r>    1.9042    0.0000 </r>
       <r>    1.9042    0.0000 </r>
       <r>    1.9042    0.0000 </r>
       <r>    2.1706    0.0000 </r>
       <r>    2.1706    0.0000 </r>
       <r>    4.0422    0.0000 </r>
       <r>    4.6695    0.0000 </r>
       <r>    4.6695    0.0000 </r>
       <r>    4.6695    0.0000 </r>
      </set>
     </set>
    </set>
   </array>
  </eigenvalues>
  <separator name="orbital magnetization" >
   <v name="MAGDIPOLOUT">      0.00000000      0.00000000      0.00000000</v>
  </separator>
  <dos>
   <i name="efermi">      0.73050260 </i>
   <total>
    <array>
     <dimension dim="1">gridpoints</dimension>
     <dimension dim="2">spin</dimension>
     <field>energy</field>
     <field>total</field>
     <field>integrated</field>
     <set>
      <set comment="spin 1">
       <r>   -10.7698     0.0000     0.0000 </r>
       <r>   -10.7066     0.0000     0.0000 </r>
       <r>   -10.6433     0.0000     0.0000 </r>
       <r>   -10.5801     0.0000     0.0000 </r>
       <r>   -10.5168     0.0000     0.0000 </r>
       <r>   -10.4536     0.0000     0.0000 </r>
       <r>   -10.3903     0.0000     0.0000 </r>
       <r>   -10.3271     0.0000     0.0000 </r>
       <r>   -10.2638     0.0000     0.0000 </r>
       <r>   -10.2006     0.0000     0.0000 </r>
       <r>   -10.1373     0.0000     0.0000 </r>
       <r>   -10.0741     0.0000     0.0000 </r>
       <r>   -10.0108     0.0000     0.0000 </r>
       <r>    -9.9476     0.0000     0.0000 </r>
       <r>    -9.8843     0.0000     0.0000 </r>
       <r>    -9.8211     0.0000     0.0000 </r>
       <r>    -9.7578     0.0000     0.0000 </r>
       <r>    -9.6946     0.0000     0.0000 </r>
       <r>    -9.6314     0.0000     0.0000 </r>
       <r>    -9.5681     0.0000     0.0000 </r>
       <r>    -9.5049     0.0000     0.0000 </r>
       <r>    -9.4416     0.0000     0.0000 </r>
       <r>    -9.3784     0.0000     0.0000 </r>
       <r>    -9.3151     0.0001     0.0000 </r>
       <r>    -9.2519     0.0003     0.0000 </r>
       <r>    -9.1886     0.0014     0.0001 </r>
       <r>    -9.1254     0.0052     0.0004 </r>
       <r>    -9.0621     0.0160     0.0015 </r>
       <r>    -8.9989     0.0406     0.0040 </r>
       <r>    -8.9356     0.0864     0.0095 </r>
       <r>    -8.8724     0.1569     0.0194 </r>
       <r>    -8.8091     0.2506     0.0353 </r>
       <r>    -8.7459     0.3646     0.0583 </r>
       <r>    -8.6826     0.4976     0.0898 </r>
       <r>    -8.6194     0.6423     0.1304 </r>
       <r>    -8.5561     0.7777     0.1796 </r>
       <r>    -8.4929     0.8794     0.2352 </r>
       <r>    -8.4297     0.9420     0.2948 </r>
       <r>    -8.3664     0.9819     0.3569 </r>
       <r>    -8.3032     1.0204     0.4214 </r>
       <r>    -8.2399     1.0732     0.4893 </r>
       <r>    -8.1767     1.1515     0.5622 </r>
       <r>    -8.1134     1.2598     0.6418 </r>
       <r>    -8.0502     1.3921     0.7299 </r>
       <r>    -7.9869     1.5338     0.8269 </r>
       <r>    -7.9237     1.6588     0.9318 </r>
       <r>    -7.8604     1.7244     1.0409 </r>
       <r>    -7.7972     1.6943     1.1480 </r>
       <r>    -7.7339     1.5803     1.2480 </r>
       <r>    -7.6707     1.4502     1.3397 </r>
       <r>    -7.6074     1.3907     1.4277 </r>
       <r>    -7.5442     1.4615     1.5201 </r>
       <r>    -7.4809     1.6694     1.6257 </r>
       <r>    -7.4177     1.9682     1.7502 </r>
       <r>    -7.3544     2.2801     1.8944 </r>
       <r>    -7.2912     2.5232     2.0540 </r>
       <r>    -7.2280     2.6278     2.2202 </r>
       <r>    -7.1647     2.5616     2.3822 </r>
       <r>    -7.1015     2.3671     2.5319 </r>
       <r>    -7.0382     2.1632     2.6687 </r>
       <r>    -6.9750     2.0842     2.8005 </r>
       <r>    -6.9117     2.1967     2.9395 </r>
       <r>    -6.8485     2.4601     3.0951 </r>
       <r>    -6.7852     2.7524     3.2691 </r>
       <r>    -6.7220     2.9476     3.4556 </r>
       <r>    -6.6587     2.9970     3.6451 </r>
       <r>    -6.5955     2.9597     3.8323 </r>
       <r>    -6.5322     2.9601     4.0195 </r>
       <r>    -6.4690     3.1050     4.2159 </r>
       <r>    -6.4057     3.4056     4.4313 </r>
       <r>    -6.3425     3.7594     4.6691 </r>
       <r>    -6.2792     4.0198     4.9233 </r>
       <r>    -6.2160     4.0971     5.1825 </r>
       <r>    -6.1527     3.9823     5.4343 </r>
       <r>    -6.0895     3.6809     5.6671 </r>
       <r>    -6.0263     3.1868     5.8687 </r>
       <r>    -5.9630     2.5531     6.0302 </r>
       <r>    -5.8998     1.9425     6.1530 </r>
       <r>    -5.8365     1.5439     6.2507 </r>
       <r>    -5.7733     1.4273     6.3409 </r>
       <r>    -5.7100     1.5068     6.4362 </r>
       <r>    -5.6468     1.6549     6.5409 </r>
       <r>    -5.5835     1.8387     6.6572 </r>
       <r>    -5.5203     2.1202     6.7913 </r>
       <r>    -5.4570     2.5286     6.9512 </r>
       <r>    -5.3938     2.9597     7.1384 </r>
       <r>    -5.3305     3.2146     7.3417 </r>
       <r>    -5.2673     3.1324     7.5399 </r>
       <r>    -5.2040     2.6918     7.7101 </r>
       <r>    -5.1408     2.0182     7.8378 </r>
       <r>    -5.0775     1.3071     7.9204 </r>
       <r>    -5.0143     0.7241     7.9662 </r>
       <r>    -4.9510     0.3400     7.9877 </r>
       <r>    -4.8878     0.1342     7.9962 </r>
       <r>    -4.8246     0.0443     7.9990 </r>
       <r>    -4.7613     0.0125     7.9998 </r>
       <r>    -4.6981     0.0047     8.0001 </r>
       <r>    -4.6348     0.0102     8.0008 </r>
       <r>    -4.5716     0.0401     8.0033 </r>
       <r>    -4.5083     0.1360     8.0119 </r>
       <r>    -4.4451     0.3801     8.0359 </r>
       <r>    -4.3818     0.8762     8.0913 </r>
       <r>    -4.3186     1.6689     8.1969 </r>
       <r>    -4.2553     2.6368     8.3637 </r>
       <r>    -4.1921     3.4844     8.5841 </r>
       <r>    -4.1288     3.9231     8.8322 </r>
       <r>    -4.0656     3.9185     9.0800 </r>
       <r>    -4.0023     3.7328     9.3161 </r>
       <r>    -3.9391     3.6738     9.5485 </r>
       <r>    -3.8758     3.7982     9.7887 </r>
       <r>    -3.8126     3.8838    10.0343 </r>
       <r>    -3.7493     3.6981    10.2682 </r>
       <r>    -3.6861     3.2765    10.4755 </r>
       <r>    -3.6229     2.9254    10.6605 </r>
       <r>    -3.5596     2.9457    10.8468 </r>
       <r>    -3.4964     3.3417    11.0581 </r>
       <r>    -3.4331     3.7876    11.2977 </r>
       <r>    -3.3699     3.8888    11.5437 </r>
       <r>    -3.3066     3.5041    11.7653 </r>
       <r>    -3.2434     2.8351    11.9446 </r>
       <r>    -3.1801     2.2226    12.0852 </r>
       <r>    -3.1169     1.8715    12.2035 </r>
       <r>    -3.0536     1.7680    12.3153 </r>
       <r>    -2.9904     1.8142    12.4301 </r>
       <r>    -2.9271     1.9803    12.5553 </r>
       <r>    -2.8639     2.2918    12.7003 </r>
       <r>    -2.8006     2.6939    12.8707 </r>
       <r>    -2.7374     2.9859    13.0595 </r>
       <r>    -2.6741     2.9359    13.2452 </r>
       <r>    -2.6109     2.4733    13.4016 </r>
       <r>    -2.5476     1.7544    13.5126 </r>
       <r>    -2.4844     1.0399    13.5784 </r>
       <r>    -2.4211     0.5179    13.6111 </r>
       <r>    -2.3579     0.2370    13.6261 </r>
       <r>    -2.2947     0.1632    13.6364 </r>
       <r>    -2.2314     0.2657    13.6532 </r>
       <r>    -2.1682     0.5464    13.6878 </r>
       <r>    -2.1049     1.0000    13.7511 </r>
       <r>    -2.0417     1.5514    13.8492 </r>
       <r>    -1.9784     2.0377    13.9781 </r>
       <r>    -1.9152     2.2730    14.1218 </r>
       <r>    -1.8519     2.1593    14.2584 </r>
       <r>    -1.7887     1.7548    14.3694 </r>
       <r>    -1.7254     1.2434    14.4480 </r>
       <r>    -1.6622     0.8273    14.5003 </r>
       <r>    -1.5989     0.6288    14.5401 </r>
       <r>    -1.5357     0.6606    14.5819 </r>
       <r>    -1.4724     0.8704    14.6369 </r>
       <r>    -1.4092     1.2103    14.7135 </r>
       <r>    -1.3459     1.6687    14.8190 </r>
       <r>    -1.2827     2.2438    14.9609 </r>
       <r>    -1.2194     2.9008    15.1444 </r>
       <r>    -1.1562     3.5736    15.3704 </r>
       <r>    -1.0930     4.1886    15.6353 </r>
       <r>    -1.0297     4.6567    15.9299 </r>
       <r>    -0.9665     4.8606    16.2373 </r>
       <r>    -0.9032     4.7120    16.5353 </r>
       <r>    -0.8400     4.2498    16.8041 </r>
       <r>    -0.7767     3.6612    17.0357 </r>
       <r>    -0.7135     3.1978    17.2379 </r>
       <r>    -0.6502     3.0676    17.4319 </r>
       <r>    -0.5870     3.3550    17.6441 </r>
       <r>    -0.5237     3.9568    17.8944 </r>
       <r>    -0.4605     4.5850    18.1844 </r>
       <r>    -0.3972     4.9169    18.4954 </r>
       <r>    -0.3340     4.8143    18.7999 </r>
       <r>    -0.2707     4.3991    19.0781 </r>
       <r>    -0.2075     3.9224    19.3262 </r>
       <r>    -0.1442     3.5987    19.5538 </r>
       <r>    -0.0810     3.5553    19.7786 </r>
       <r>    -0.0177     3.8480    20.0220 </r>
       <r>     0.0455     4.4209    20.3016 </r>
       <r>     0.1087     5.0525    20.6212 </r>
       <r>     0.1720     5.4386    20.9652 </r>
       <r>     0.2352     5.4227    21.3081 </r>
       <r>     0.2985     5.1593    21.6344 </r>
       <r>     0.3617     4.9997    21.9507 </r>
       <r>     0.4250     5.1727    22.2778 </r>
       <r>     0.4882     5.5774    22.6306 </r>
       <r>     0.5515     5.8981    23.0036 </r>
       <r>     0.6147     5.8983    23.3767 </r>
       <r>     0.6780     5.5789    23.7295 </r>
       <r>     0.7412     5.1095    24.0527 </r>
       <r>     0.8045     4.6952    24.3496 </r>
       <r>     0.8677     4.4906    24.6336 </r>
       <r>     0.9310     4.5202    24.9195 </r>
       <r>     0.9942     4.6399    25.2130 </r>
       <r>     1.0575     4.6511    25.5072 </r>
       <r>     1.1207     4.4986    25.7917 </r>
       <r>     1.1840     4.3143    26.0646 </r>
       <r>     1.2472     4.2434    26.3329 </r>
       <r>     1.3104     4.2837    26.6039 </r>
       <r>     1.3737     4.3362    26.8781 </r>
       <r>     1.4369     4.3703    27.1545 </r>
       <r>     1.5002     4.4683    27.4372 </r>
       <r>     1.5634     4.6963    27.7342 </r>
       <r>     1.6267     4.9762    28.0489 </r>
       <r>     1.6899     5.1248    28.3730 </r>
       <r>     1.7532     5.0130    28.6901 </r>
       <r>     1.8164     4.6595    28.9848 </r>
       <r>     1.8797     4.1663    29.2483 </r>
       <r>     1.9429     3.6042    29.4763 </r>
       <r>     2.0062     3.0026    29.6662 </r>
       <r>     2.0694     2.4291    29.8198 </r>
       <r>     2.1327     2.0243    29.9478 </r>
       <r>     2.1959     1.9268    30.0697 </r>
       <r>     2.2592     2.1573    30.2061 </r>
       <r>     2.3224     2.5677    30.3685 </r>
       <r>     2.3857     2.9086    30.5525 </r>
       <r>     2.4489     2.9886    30.7415 </r>
       <r>     2.5121     2.7975    30.9185 </r>
       <r>     2.5754     2.4740    31.0749 </r>
       <r>     2.6386     2.1554    31.2113 </r>
       <r>     2.7019     1.8742    31.3298 </r>
       <r>     2.7651     1.5862    31.4301 </r>
       <r>     2.8284     1.2612    31.5099 </r>
       <r>     2.8916     0.9314    31.5688 </r>
       <r>     2.9549     0.6726    31.6113 </r>
       <r>     3.0181     0.5471    31.6459 </r>
       <r>     3.0814     0.5558    31.6811 </r>
       <r>     3.1446     0.6331    31.7211 </r>
       <r>     3.2079     0.6939    31.7650 </r>
       <r>     3.2711     0.6977    31.8091 </r>
       <r>     3.3344     0.6711    31.8516 </r>
       <r>     3.3976     0.6721    31.8941 </r>
       <r>     3.4609     0.7377    31.9408 </r>
       <r>     3.5241     0.8675    31.9956 </r>
       <r>     3.5874     1.0342    32.0610 </r>
       <r>     3.6506     1.1913    32.1364 </r>
       <r>     3.7138     1.2815    32.2174 </r>
       <r>     3.7771     1.2725    32.2979 </r>
       <r>     3.8403     1.2011    32.3739 </r>
       <r>     3.9036     1.1680    32.4478 </r>
       <r>     3.9668     1.2617    32.5276 </r>
       <r>     4.0301     1.4729    32.6207 </r>
       <r>     4.0933     1.6991    32.7282 </r>
       <r>     4.1566     1.8533    32.8454 </r>
       <r>     4.2198     1.9612    32.9694 </r>
       <r>     4.2831     2.1298    33.1041 </r>
       <r>     4.3463     2.4219    33.2573 </r>
       <r>     4.4096     2.7982    33.4343 </r>
       <r>     4.4728     3.1920    33.6362 </r>
       <r>     4.5361     3.5932    33.8634 </r>
       <r>     4.5993     4.0145    34.1174 </r>
       <r>     4.6626     4.4071    34.3961 </r>
       <r>     4.7258     4.6826    34.6923 </r>
       <r>     4.7891     4.8245    34.9974 </r>
       <r>     4.8523     4.9204    35.3086 </r>
       <r>     4.9156     5.0504    35.6280 </r>
       <r>     4.9788     5.1701    35.9550 </r>
       <r>     5.0420     5.1485    36.2807 </r>
       <r>     5.1053     4.9290    36.5924 </r>
       <r>     5.1685     4.6150    36.8843 </r>
       <r>     5.2318     4.3632    37.1602 </r>
       <r>     5.2950     4.2243    37.4274 </r>
       <r>     5.3583     4.1318    37.6887 </r>
       <r>     5.4215     4.0103    37.9424 </r>
       <r>     5.4848     3.8266    38.1844 </r>
       <r>     5.5480     3.5536    38.4092 </r>
       <r>     5.6113     3.1723    38.6098 </r>
       <r>     5.6745     2.7337    38.7827 </r>
       <r>     5.7378     2.3556    38.9317 </r>
       <r>     5.8010     2.1161    39.0655 </r>
       <r>     5.8643     1.9827    39.1909 </r>
       <r>     5.9275     1.8715    39.3093 </r>
       <r>     5.9908     1.7501    39.4200 </r>
       <r>     6.0540     1.6544    39.5246 </r>
       <r>     6.1173     1.6120    39.6266 </r>
       <r>     6.1805     1.5764    39.7263 </r>
       <r>     6.2437     1.4520    39.8181 </r>
       <r>     6.3070     1.1873    39.8932 </r>
       <r>     6.3702     0.8299    39.9457 </r>
       <r>     6.4335     0.4860    39.9764 </r>
       <r>     6.4967     0.2361    39.9914 </r>
       <r>     6.5600     0.0946    39.9973 </r>
       <r>     6.6232     0.0312    39.9993 </r>
       <r>     6.6865     0.0085    39.9999 </r>
       <r>     6.7497     0.0019    40.0000 </r>
       <r>     6.8130     0.0003    40.0000 </r>
       <r>     6.8762     0.0001    40.0000 </r>
       <r>     6.9395     0.0000    40.0000 </r>
       <r>     7.0027     0.0000    40.0000 </r>
       <r>     7.0660     0.0000    40.0000 </r>
       <r>     7.1292     0.0000    40.0000 </r>
       <r>     7.1925     0.0000    40.0000 </r>
       <r>     7.2557     0.0000    40.0000 </r>
       <r>     7.3190     0.0000    40.0000 </r>
       <r>     7.3822     0.0000    40.0000 </r>
       <r>     7.4454     0.0000    40.0000 </r>
       <r>     7.5087     0.0000    40.0000 </r>
       <r>     7.5719     0.0000    40.0000 </r>
       <r>     7.6352     0.0000    40.0000 </r>
       <r>     7.6984     0.0000    40.0000 </r>
       <r>     7.7617     0.0000    40.0000 </r>
       <r>     7.8249     0.0000    40.0000 </r>
       <r>     7.8882     0.0000    40.0000 </r>
       <r>     7.9514     0.0000    40.0000 </r>
       <r>     8.0147     0.0000    40.0000 </r>
       <r>     8.0779     0.0000    40.0000 </r>
       <r>     8.1412     0.0000    40.0000 </r>
       <r>     8.2044     0.0000    40.0000 </r>
      </set>
     </set>
    </array>
   </total>
  </dos>
 </calculation>
 <structure name="finalpos" >
  <crystal>
   <varray name="basis" >
    <v>       5.76286300       0.00000000       0.00000000 </v>
    <v>       0.00000000       5.76286300       0.00000000 </v>
    <v>       0.00000000       0.00000000       5.76286300 </v>
   </varray>
   <i name="volume">    191.38808007 </i>
   <varray name="rec_basis" >
    <v>       0.17352486       0.00000000       0.00000000 </v>
    <v>       0.00000000       0.17352486       0.00000000 </v>
    <v>       0.00000000       0.00000000       0.17352486 </v>
   </varray>
  </crystal>
  <varray name="positions" >
   <v>       0.75000000       0.75000000       0.75000000 </v>
   <v>       0.50000000       0.00000000       0.00000000 </v>
   <v>       0.75000000       0.25000000       0.25000000 </v>
   <v>       0.50000000       0.50000000       0.50000000 </v>
   <v>       0.25000000       0.75000000       0.25000000 </v>
   <v>       0.00000000       0.00000000       0.50000000 </v>
   <v>       0.25000000       0.25000000       0.75000000 </v>
   <v>       0.00000000       0.50000000       0.00000000 </v>
  </varray>
 </structure>
</modeling>
