                                        
   1.00000000000000     
    -1.810631   -1.810631    0.000000
    -1.810631    0.000000   -1.810631
     0.000000   -1.810631   -1.810631
   Cu
     1
Direct
  0.000000  0.000000  0.000000
 
   40   40   40
  177.21      174.30      165.85      152.62      135.76      116.64      96.652      77.088      59.016      43.227    
  30.215      20.180      13.040      8.4577      5.8913      4.6618      4.0520      3.6166      3.3190      3.1487    
  3.0936      3.1487      3.3190      3.6166      4.0520      4.6618      5.8913      8.4577      13.040      20.180    
  30.215      43.227      59.016      77.088      96.652      116.64      135.76      152.62      165.85      174.30    
  174.30      168.62      157.78      142.76      124.81      105.31      85.620      66.909      50.105      35.844    
  24.468      16.032      10.322      6.8912      5.1217      4.3053      3.8036      3.4407      3.2104      3.0998    
  3.0998      3.2104      3.4407      3.8036      4.3053      5.1217      6.8912      10.322      16.032      24.468    
  35.844      50.105      66.909      85.620      105.31      124.81      142.76      157.78      168.62      174.30    
  165.85      157.78      145.17      129.08      110.84      91.774      73.117      55.897      40.875      28.528    
  19.044      12.334      8.0656      5.7008      4.5746      3.9933      3.5704      3.2823      3.1178      3.0646    
  3.1178      3.2823      3.5704      3.9933      4.5746      5.7008      8.0656      12.334      19.044      28.528    
  40.875      55.897      73.117      91.774      110.84      129.08      145.17      157.78      165.85      168.62    
  152.62      142.76      129.08      112.74      94.999      77.086      60.087      44.857      31.987      21.789    
  14.303      9.3087      6.3681      4.8822      4.1764      3.7018      3.3608      3.1455      3.0425      3.0425    
  3.1455      3.3608      3.7018      4.1764      4.8822      6.3681      9.3087      14.303      21.789      31.987    
  44.857      60.087      77.086      94.999      112.74      129.08      142.76      152.62      157.78      157.78    
  135.76      124.81      110.84      94.999      78.452      62.286      47.411      34.506      23.990      16.018    
  10.484      7.0572      5.2196      4.3469      3.8279      3.4410      3.1799      3.0316      2.9837      3.0316    
  3.1799      3.4410      3.8279      4.3469      5.2196      7.0572      10.484      16.018      23.990      34.506    
  47.411      62.286      78.452      94.999      110.84      124.81      135.76      142.76      145.17      142.76    
  116.64      105.31      91.774      77.086      62.286      48.292      35.834      25.414      17.286      11.451    
  7.6825      5.5541      4.5081      3.9416      3.5177      3.2173      3.0293      2.9397      2.9397      3.0293    
  3.2173      3.5177      3.9416      4.5081      5.5541      7.6825      11.451      17.286      25.414      35.834    
  48.292      62.286      77.086      91.774      105.31      116.64      124.81      129.08      129.08      124.81    
  96.652      85.620      73.117      60.087      47.411      35.834      25.907      17.960      12.087      8.1581    
  5.8403      4.6524      4.0367      3.5858      3.2540      3.0327      2.9078      2.8676      2.9078      3.0327    
  3.2540      3.5858      4.0367      4.6524      5.8403      8.1581      12.087      17.960      25.907      35.834    
  47.411      60.087      73.117      85.620      96.652      105.31      110.84      112.74      110.84      105.31    
  77.088      66.909      55.897      44.857      34.506      25.414      17.960      12.309      8.4150      6.0336    
  4.7634      4.1082      3.6410      3.2864      3.0389      2.8854      2.8126      2.8126      2.8854      3.0389    
  3.2864      3.6410      4.1082      4.7634      6.0336      8.4150      12.309      17.960      25.414      34.506    
  44.857      55.897      66.909      77.088      85.620      91.774      94.999      94.999      91.774      85.620    
  59.016      50.105      40.875      31.987      23.990      17.286      12.087      8.4150      6.1020      4.8241    
  4.1526      3.6797      3.3116      3.0457      2.8703      2.7719      2.7403      2.7719      2.8703      3.0457    
  3.3116      3.6797      4.1526      4.8241      6.1020      8.4150      12.087      17.286      23.990      31.987    
  40.875      50.105      59.016      66.909      73.117      77.086      78.452      77.086      73.117      66.909    
  43.227      35.844      28.528      21.789      16.018      11.451      8.1581      6.0336      4.8241      4.1677    
  3.6997      3.3276      3.0512      2.8607      2.7432      2.6875      2.6875      2.7432      2.8607      3.0512    
  3.3276      3.6997      4.1677      4.8241      6.0336      8.1581      11.451      16.018      21.789      28.528    
  35.844      43.227      50.105      55.897      60.087      62.286      62.286      60.087      55.897      50.105    
  30.215      24.468      19.044      14.303      10.484      7.6825      5.8403      4.7634      4.1526      3.6997    
  3.3331      3.0542      2.8553      2.7248      2.6516      2.6282      2.6516      2.7248      2.8553      3.0542    
  3.3331      3.6997      4.1526      4.7634      5.8403      7.6825      10.484      14.303      19.044      24.468    
  30.215      35.844      40.875      44.857      47.411      48.292      47.411      44.857      40.875      35.844    
  20.180      16.032      12.334      9.3087      7.0572      5.5541      4.6524      4.1082      3.6797      3.3276    
  3.0542      2.8536      2.7159      2.6308      2.5904      2.5904      2.6308      2.7159      2.8536      3.0542    
  3.3276      3.6797      4.1082      4.6524      5.5541      7.0572      9.3087      12.334      16.032      20.180    
  24.468      28.528      31.987      34.506      35.834      35.834      34.506      31.987      28.528      24.468    
  13.040      10.322      8.0656      6.3681      5.2196      4.5081      4.0367      3.6410      3.3116      3.0512    
  2.8553      2.7159      2.6240      2.5721      2.5554      2.5721      2.6240      2.7159      2.8553      3.0512    
  3.3116      3.6410      4.0367      4.5081      5.2196      6.3681      8.0656      10.322      13.040      16.032    
  19.044      21.789      23.990      25.414      25.907      25.414      23.990      21.789      19.044      16.032    
  8.4577      6.8912      5.7008      4.8822      4.3469      3.9416      3.5858      3.2864      3.0457      2.8607    
  2.7248      2.6308      2.5721      2.5440      2.5440      2.5721      2.6308      2.7248      2.8607      3.0457    
  3.2864      3.5858      3.9416      4.3469      4.8822      5.7008      6.8912      8.4577      10.322      12.334    
  14.303      16.018      17.286      17.960      17.960      17.286      16.018      14.303      12.334      10.322    
  5.8913      5.1217      4.5746      4.1764      3.8279      3.5177      3.2540      3.0389      2.8703      2.7432    
  2.6516      2.5904      2.5554      2.5440      2.5554      2.5904      2.6516      2.7432      2.8703      3.0389    
  3.2540      3.5177      3.8279      4.1764      4.5746      5.1217      5.8913      6.8912      8.0656      9.3087    
  10.484      11.451      12.087      12.309      12.087      11.451      10.484      9.3087      8.0656      6.8912    
  4.6618      4.3053      3.9933      3.7018      3.4410      3.2173      3.0327      2.8854      2.7719      2.6875    
  2.6282      2.5904      2.5721      2.5721      2.5904      2.6282      2.6875      2.7719      2.8854      3.0327    
  3.2173      3.4410      3.7018      3.9933      4.3053      4.6618      5.1217      5.7008      6.3681      7.0572    
  7.6825      8.1581      8.4150      8.4150      8.1581      7.6825      7.0572      6.3681      5.7008      5.1217    
  4.0520      3.8036      3.5704      3.3608      3.1799      3.0293      2.9078      2.8126      2.7403      2.6875    
  2.6516      2.6308      2.6240      2.6308      2.6516      2.6875      2.7403      2.8126      2.9078      3.0293    
  3.1799      3.3608      3.5704      3.8036      4.0520      4.3053      4.5746      4.8822      5.2196      5.5541    
  5.8403      6.0336      6.1020      6.0336      5.8403      5.5541      5.2196      4.8822      4.5746      4.3053    
  3.6166      3.4407      3.2823      3.1455      3.0316      2.9397      2.8676      2.8126      2.7719      2.7432    
  2.7248      2.7159      2.7159      2.7248      2.7432      2.7719      2.8126      2.8676      2.9397      3.0316    
  3.1455      3.2823      3.4407      3.6166      3.8036      3.9933      4.1764      4.3469      4.5081      4.6524    
  4.7634      4.8241      4.8241      4.7634      4.6524      4.5081      4.3469      4.1764      3.9933      3.8036    
  3.3190      3.2104      3.1178      3.0425      2.9837      2.9397      2.9078      2.8854      2.8703      2.8607    
  2.8553      2.8536      2.8553      2.8607      2.8703      2.8854      2.9078      2.9397      2.9837      3.0425    
  3.1178      3.2104      3.3190      3.4407      3.5704      3.7018      3.8279      3.9416      4.0367      4.1082    
  4.1526      4.1677      4.1526      4.1082      4.0367      3.9416      3.8279      3.7018      3.5704      3.4407    
  3.1487      3.0998      3.0646      3.0425      3.0316      3.0293      3.0327      3.0389      3.0457      3.0512    
  3.0542      3.0542      3.0512      3.0457      3.0389      3.0327      3.0293      3.0316      3.0425      3.0646    
  3.0998      3.1487      3.2104      3.2823      3.3608      3.4410      3.5177      3.5858      3.6410      3.6797    
  3.6997      3.6997      3.6797      3.6410      3.5858      3.5177      3.4410      3.3608      3.2823      3.2104    
  3.0936      3.0998      3.1178      3.1455      3.1799      3.2173      3.2540      3.2864      3.3116      3.3276    
  3.3331      3.3276      3.3116      3.2864      3.2540      3.2173      3.1799      3.1455      3.1178      3.0998    
  3.0936      3.0998      3.1178      3.1455      3.1799      3.2173      3.2540      3.2864      3.3116      3.3276    
  3.3331      3.3276      3.3116      3.2864      3.2540      3.2173      3.1799      3.1455      3.1178      3.0998    
  3.1487      3.2104      3.2823      3.3608      3.4410      3.5177      3.5858      3.6410      3.6797      3.6997    
  3.6997      3.6797      3.6410      3.5858      3.5177      3.4410      3.3608      3.2823      3.2104      3.1487    
  3.0998      3.0646      3.0425      3.0316      3.0293      3.0327      3.0389      3.0457      3.0512      3.0542    
  3.0542      3.0512      3.0457      3.0389      3.0327      3.0293      3.0316      3.0425      3.0646      3.0998    
  3.3190      3.4407      3.5704      3.7018      3.8279      3.9416      4.0367      4.1082      4.1526      4.1677    
  4.1526      4.1082      4.0367      3.9416      3.8279      3.7018      3.5704      3.4407      3.3190      3.2104    
  3.1178      3.0425      2.9837      2.9397      2.9078      2.8854      2.8703      2.8607      2.8553      2.8536    
  2.8553      2.8607      2.8703      2.8854      2.9078      2.9397      2.9837      3.0425      3.1178      3.2104    
  3.6166      3.8036      3.9933      4.1764      4.3469      4.5081      4.6524      4.7634      4.8241      4.8241    
  4.7634      4.6524      4.5081      4.3469      4.1764      3.9933      3.8036      3.6166      3.4407      3.2823    
  3.1455      3.0316      2.9397      2.8676      2.8126      2.7719      2.7432      2.7248      2.7159      2.7159    
  2.7248      2.7432      2.7719      2.8126      2.8676      2.9397      3.0316      3.1455      3.2823      3.4407    
  4.0520      4.3053      4.5746      4.8822      5.2196      5.5541      5.8403      6.0336      6.1020      6.0336    
  5.8403      5.5541      5.2196      4.8822      4.5746      4.3053      4.0520      3.8036      3.5704      3.3608    
  3.1799      3.0293      2.9078      2.8126      2.7403      2.6875      2.6516      2.6308      2.6240      2.6308    
  2.6516      2.6875      2.7403      2.8126      2.9078      3.0293      3.1799      3.3608      3.5704      3.8036    
  4.6618      5.1217      5.7008      6.3681      7.0572      7.6825      8.1581      8.4150      8.4150      8.1581    
  7.6825      7.0572      6.3681      5.7008      5.1217      4.6618      4.3053      3.9933      3.7018      3.4410    
  3.2173      3.0327      2.8854      2.7719      2.6875      2.6282      2.5904      2.5721      2.5721      2.5904    
  2.6282      2.6875      2.7719      2.8854      3.0327      3.2173      3.4410      3.7018      3.9933      4.3053    
  5.8913      6.8912      8.0656      9.3087      10.484      11.451      12.087      12.309      12.087      11.451    
  10.484      9.3087      8.0656      6.8912      5.8913      5.1217      4.5746      4.1764      3.8279      3.5177    
  3.2540      3.0389      2.8703      2.7432      2.6516      2.5904      2.5554      2.5440      2.5554      2.5904    
  2.6516      2.7432      2.8703      3.0389      3.2540      3.5177      3.8279      4.1764      4.5746      5.1217    
  8.4577      10.322      12.334      14.303      16.018      17.286      17.960      17.960      17.286      16.018    
  14.303      12.334      10.322      8.4577      6.8912      5.7008      4.8822      4.3469      3.9416      3.5858    
  3.2864      3.0457      2.8607      2.7248      2.6308      2.5721      2.5440      2.5440      2.5721      2.6308    
  2.7248      2.8607      3.0457      3.2864      3.5858      3.9416      4.3469      4.8822      5.7008      6.8912    
  13.040      16.032      19.044      21.789      23.990      25.414      25.907      25.414      23.990      21.789    
  19.044      16.032      13.040      10.322      8.0656      6.3681      5.2196      4.5081      4.0367      3.6410    
  3.3116      3.0512      2.8553      2.7159      2.6240      2.5721      2.5554      2.5721      2.6240      2.7159    
  2.8553      3.0512      3.3116      3.6410      4.0367      4.5081      5.2196      6.3681      8.0656      10.322    
  20.180      24.468      28.528      31.987      34.506      35.834      35.834      34.506      31.987      28.528    
  24.468      20.180      16.032      12.334      9.3087      7.0572      5.5541      4.6524      4.1082      3.6797    
  3.3276      3.0542      2.8536      2.7159      2.6308      2.5904      2.5904      2.6308      2.7159      2.8536    
  3.0542      3.3276      3.6797      4.1082      4.6524      5.5541      7.0572      9.3087      12.334      16.032    
  30.215      35.844      40.875      44.857      47.411      48.292      47.411      44.857      40.875      35.844    
  30.215      24.468      19.044      14.303      10.484      7.6825      5.8403      4.7634      4.1526      3.6997    
  3.3331      3.0542      2.8553      2.7248      2.6516      2.6282      2.6516      2.7248      2.8553      3.0542    
  3.3331      3.6997      4.1526      4.7634      5.8403      7.6825      10.484      14.303      19.044      24.468    
  43.227      50.105      55.897      60.087      62.286      62.286      60.087      55.897      50.105      43.227    
  35.844      28.528      21.789      16.018      11.451      8.1581      6.0336      4.8241      4.1677      3.6997    
  3.3276      3.0512      2.8607      2.7432      2.6875      2.6875      2.7432      2.8607      3.0512      3.3276    
  3.6997      4.1677      4.8241      6.0336      8.1581      11.451      16.018      21.789      28.528      35.844    
  59.016      66.909      73.117      77.086      78.452      77.086      73.117      66.909      59.016      50.105    
  40.875      31.987      23.990      17.286      12.087      8.4150      6.1020      4.8241      4.1526      3.6797    
  3.3116      3.0457      2.8703      2.7719      2.7403      2.7719      2.8703      3.0457      3.3116      3.6797    
  4.1526      4.8241      6.1020      8.4150      12.087      17.286      23.990      31.987      40.875      50.105    
  77.088      85.620      91.774      94.999      94.999      91.774      85.620      77.088      66.909      55.897    
  44.857      34.506      25.414      17.960      12.309      8.4150      6.0336      4.7634      4.1082      3.6410    
  3.2864      3.0389      2.8854      2.8126      2.8126      2.8854      3.0389      3.2864      3.6410      4.1082    
  4.7634      6.0336      8.4150      12.309      17.960      25.414      34.506      44.857      55.897      66.909    
  96.652      105.31      110.84      112.74      110.84      105.31      96.652      85.620      73.117      60.087    
  47.411      35.834      25.907      17.960      12.087      8.1581      5.8403      4.6524      4.0367      3.5858    
  3.2540      3.0327      2.9078      2.8676      2.9078      3.0327      3.2540      3.5858      4.0367      4.6524    
  5.8403      8.1581      12.087      17.960      25.907      35.834      47.411      60.087      73.117      85.620    
  116.64      124.81      129.08      129.08      124.81      116.64      105.31      91.774      77.086      62.286    
  48.292      35.834      25.414      17.286      11.451      7.6825      5.5541      4.5081      3.9416      3.5177    
  3.2173      3.0293      2.9397      2.9397      3.0293      3.2173      3.5177      3.9416      4.5081      5.5541    
  7.6825      11.451      17.286      25.414      35.834      48.292      62.286      77.086      91.774      105.31    
  135.76      142.76      145.17      142.76      135.76      124.81      110.84      94.999      78.452      62.286    
  47.411      34.506      23.990      16.018      10.484      7.0572      5.2196      4.3469      3.8279      3.4410    
  3.1799      3.0316      2.9837      3.0316      3.1799      3.4410      3.8279      4.3469      5.2196      7.0572    
  10.484      16.018      23.990      34.506      47.411      62.286      78.452      94.999      110.84      124.81    
  152.62      157.78      157.78      152.62      142.76      129.08      112.74      94.999      77.086      60.087    
  44.857      31.987      21.789      14.303      9.3087      6.3681      4.8822      4.1764      3.7018      3.3608    
  3.1455      3.0425      3.0425      3.1455      3.3608      3.7018      4.1764      4.8822      6.3681      9.3087    
  14.303      21.789      31.987      44.857      60.087      77.086      94.999      112.74      129.08      142.76    
  165.85      168.62      165.85      157.78      145.17      129.08      110.84      91.774      73.117      55.897    
  40.875      28.528      19.044      12.334      8.0656      5.7008      4.5746      3.9933      3.5704      3.2823    
  3.1178      3.0646      3.1178      3.2823      3.5704      3.9933      4.5746      5.7008      8.0656      12.334    
  19.044      28.528      40.875      55.897      73.117      91.774      110.84      129.08      145.17      157.78    
  174.30      174.30      168.62      157.78      142.76      124.81      105.31      85.620      66.909      50.105    
  35.844      24.468      16.032      10.322      6.8912      5.1217      4.3053      3.8036      3.4407      3.2104    
  3.0998      3.0998      3.2104      3.4407      3.8036      4.3053      5.1217      6.8912      10.322      16.032    
  24.468      35.844      50.105      66.909      85.620      105.31      124.81      142.76      157.78      168.62    
  174.30      168.62      157.78      142.76      124.81      105.31      85.620      66.909      50.105      35.844    
  24.468      16.032      10.322      6.8912      5.1217      4.3053      3.8036      3.4407      3.2104      3.0998    
  3.0998      3.2104      3.4407      3.8036      4.3053      5.1217      6.8912      10.322      16.032      24.468    
  35.844      50.105      66.909      85.620      105.31      124.81      142.76      157.78      168.62      174.30    
  168.62      160.43      147.60      131.26      112.72      93.354      74.399      56.902      41.632      29.071    
  19.410      12.562      8.1932      5.7638      4.6048      4.0148      3.5878      3.2967      3.1303      3.0764    
  3.1303      3.2967      3.5878      4.0148      4.6048      5.7638      8.1932      12.562      19.410      29.071    
  41.632      56.902      74.399      93.354      112.72      131.26      147.60      160.43      168.62      171.44    
  157.78      147.60      133.48      116.61      98.293      79.803      62.253      46.519      33.206      22.635    
  14.849      9.6292      6.5348      4.9608      4.2222      3.7392      3.3912      3.1711      3.0656      3.0656    
  3.1711      3.3912      3.7392      4.2222      4.9608      6.5348      9.6292      14.849      22.635      33.206    
  46.519      62.253      79.803      98.293      116.61      133.48      147.60      157.78      163.12      163.12    
  142.76      131.26      116.61      99.992      82.636      65.676      50.058      36.487      25.398      16.954    
  11.056      7.3686      5.3703      4.4234      3.8873      3.4889      3.2193      3.0658      3.0163      3.0658    
  3.2193      3.4889      3.8873      4.4234      5.3703      7.3686      11.056      16.954      25.398      36.487    
  50.058      65.676      82.636      99.992      116.61      131.26      142.76      150.11      152.63      150.11    
  124.81      112.72      98.293      82.636      66.854      51.918      38.597      27.418      18.652      12.312    
  8.1710      5.7993      4.6263      4.0241      3.5842      3.2711      3.0745      2.9807      2.9807      3.0745    
  3.2711      3.5842      4.0241      4.6263      5.7993      8.1710      12.312      18.652      27.418      38.597    
  51.918      66.854      82.636      98.293      112.72      124.81      133.52      138.08      138.08      133.52    
  105.31      93.354      79.803      65.676      51.918      39.324      28.485      19.756      13.248      8.8391    
  6.1946      4.8222      4.1426      3.6712      3.3222      3.0886      2.9565      2.9140      2.9565      3.0886    
  3.3222      3.6712      4.1426      4.8222      6.1946      8.8391      13.248      19.756      28.485      39.324    
  51.918      65.676      79.803      93.354      105.31      114.70      120.69      122.75      120.69      114.70    
  85.620      74.399      62.253      50.058      38.597      28.485      20.138      13.748      9.2819      6.4989    
  4.9893      4.2373      3.7448      3.3687      3.1051      2.9411      2.8631      2.8631      2.9411      3.1051    
  3.3687      3.7448      4.2373      4.9893      6.4989      9.2819      13.748      20.138      28.485      38.597    
  50.058      62.253      74.399      85.620      95.022      101.80      105.36      105.36      101.80      95.022    
  66.909      56.902      46.519      36.487      27.418      19.756      13.748      9.4369      6.6644      5.1025    
  4.3051      3.8005      3.4068      3.1209      2.9317      2.8254      2.7913      2.8254      2.9317      3.1209    
  3.4068      3.8005      4.3051      5.1025      6.6644      9.4369      13.748      19.756      27.418      36.487    
  46.519      56.902      66.909      75.765      82.726      87.177      88.708      87.177      82.726      75.765    
  50.105      41.632      33.206      25.398      18.652      13.248      9.2819      6.6644      5.1426      4.3410    
  3.8352      3.4339      3.1339      2.9265      2.7984      2.7377      2.7377      2.7984      2.9265      3.1339    
  3.4339      3.8352      4.3410      5.1426      6.6644      9.2819      13.248      18.652      25.398      33.206    
  41.632      50.105      57.978      64.599      69.386      71.897      71.897      69.386      64.599      57.978    
  35.844      29.071      22.635      16.954      12.312      8.8391      6.4989      5.1025      4.3410      3.8470    
  3.4479      3.1423      2.9238      2.7802      2.6997      2.6739      2.6997      2.7802      2.9238      3.1423    
  3.4479      3.8470      4.3410      5.1025      6.4989      8.8391      12.312      16.954      22.635      29.071    
  35.844      42.444      48.328      52.974      55.953      56.979      55.953      52.974      48.328      42.444    
  24.468      19.410      14.849      11.056      8.1710      6.1946      4.9893      4.3051      3.8352      3.4479    
  3.1453      2.9226      2.7697      2.6754      2.6308      2.6308      2.6754      2.7697      2.9226      3.1453    
  3.4479      3.8352      4.3051      4.9893      6.1946      8.1710      11.056      14.849      19.410      24.468    
  29.653      34.535      38.678      41.689      43.274      43.274      41.689      38.678      34.535      29.653    
  16.032      12.562      9.6292      7.3686      5.7993      4.8222      4.2373      3.8005      3.4339      3.1423    
  2.9226      2.7663      2.6636      2.6058      2.5872      2.6058      2.6636      2.7663      2.9226      3.1423    
  3.4339      3.8005      4.2373      4.8222      5.7993      7.3686      9.6292      12.562      16.032      19.799    
  23.555      26.955      29.669      31.420      32.024      31.420      29.669      26.955      23.555      19.799    
  10.322      8.1932      6.5348      5.3703      4.6263      4.1426      3.7448      3.4068      3.1339      2.9238    
  2.7697      2.6636      2.5976      2.5661      2.5661      2.5976      2.6636      2.7697      2.9238      3.1339    
  3.4068      3.7448      4.1426      4.6263      5.3703      6.5348      8.1932      10.322      12.801      15.438    
  17.986      20.188      21.808      22.666      22.666      21.808      20.188      17.986      15.438      12.801    
  6.8912      5.7638      4.9608      4.4234      4.0241      3.6712      3.3687      3.1209      2.9265      2.7802    
  2.6754      2.6058      2.5661      2.5533      2.5661      2.6058      2.6754      2.7802      2.9265      3.1209    
  3.3687      3.6712      4.0241      4.4234      4.9608      5.7638      6.8912      8.3235      9.9689      11.679    
  13.276      14.576      15.427      15.722      15.427      14.576      13.276      11.679      9.9689      8.3235    
  5.1217      4.6048      4.2222      3.8873      3.5842      3.3222      3.1051      2.9317      2.7984      2.6997    
  2.6308      2.5872      2.5661      2.5661      2.5872      2.6308      2.6997      2.7984      2.9317      3.1051    
  3.3222      3.5842      3.8873      4.2222      4.6048      5.1217      5.8246      6.7052      7.7013      8.7112    
  9.6145      10.295      10.660      10.660      10.295      9.6145      8.7112      7.7013      6.7052      5.8246    
  4.3053      4.0148      3.7392      3.4889      3.2711      3.0886      2.9411      2.8254      2.7377      2.6739    
  2.6308      2.6058      2.5976      2.6058      2.6308      2.6739      2.7377      2.8254      2.9411      3.0886    
  3.2711      3.4889      3.7392      4.0148      4.3053      4.6301      5.0338      5.5217      6.0602      6.5890    
  7.0362      7.3357      7.4410      7.3357      7.0362      6.5890      6.0602      5.5217      5.0338      4.6301    
  3.8036      3.5878      3.3912      3.2193      3.0745      2.9565      2.8631      2.7913      2.7377      2.6997    
  2.6754      2.6636      2.6636      2.6754      2.6997      2.7377      2.7913      2.8631      2.9565      3.0745    
  3.2193      3.3912      3.5878      3.8036      4.0302      4.2572      4.4879      4.7367      4.9946      5.2339    
  5.4200      5.5220      5.5220      5.4200      5.2339      4.9946      4.7367      4.4879      4.2572      4.0302    
  3.4407      3.2967      3.1711      3.0658      2.9807      2.9140      2.8631      2.8254      2.7984      2.7802    
  2.7697      2.7663      2.7697      2.7802      2.7984      2.8254      2.8631      2.9140      2.9807      3.0658    
  3.1711      3.2967      3.4407      3.5988      3.7646      3.9302      4.0870      4.2272      4.3488      4.4474    
  4.5128      4.5358      4.5128      4.4474      4.3488      4.2272      4.0870      3.9302      3.7646      3.5988    
  3.2104      3.1303      3.0656      3.0163      2.9807      2.9565      2.9411      2.9317      2.9265      2.9238    
  2.9226      2.9226      2.9238      2.9265      2.9317      2.9411      2.9565      2.9807      3.0163      3.0656    
  3.1303      3.2104      3.3043      3.4089      3.5191      3.6291      3.7324      3.8230      3.8957      3.9465    
  3.9725      3.9725      3.9465      3.8957      3.8230      3.7324      3.6291      3.5191      3.4089      3.3043    
  3.0998      3.0764      3.0656      3.0658      3.0745      3.0886      3.1051      3.1209      3.1339      3.1423    
  3.1453      3.1423      3.1339      3.1209      3.1051      3.0886      3.0745      3.0658      3.0656      3.0764    
  3.0998      3.1360      3.1836      3.2402      3.3018      3.3641      3.4225      3.4727      3.5113      3.5354    
  3.5437      3.5354      3.5113      3.4727      3.4225      3.3641      3.3018      3.2402      3.1836      3.1360    
  3.0998      3.1303      3.1711      3.2193      3.2711      3.3222      3.3687      3.4068      3.4339      3.4479    
  3.4479      3.4339      3.4068      3.3687      3.3222      3.2711      3.2193      3.1711      3.1303      3.0998    
  3.0815      3.0756      3.0811      3.0958      3.1167      3.1404      3.1638      3.1838      3.1984      3.2061    
  3.2061      3.1984      3.1838      3.1638      3.1404      3.1167      3.0958      3.0811      3.0756      3.0815    
  3.2104      3.2967      3.3912      3.4889      3.5842      3.6712      3.7448      3.8005      3.8352      3.8470    