    1    1    1    1
  0.1187189E+02  0.2560619E-09  0.2560619E-09  0.2560619E-09  0.5000000E-15
  1.000000000000000E-004
  CAR 
                                         
   11   56   20
 
  0.3742002E-15  0.3742002E-15  0.3742002E-15  0.7513148E-03
   1       -5.562225
   2        0.707988
   3        0.707988
   4        0.707988
   5        1.529177
   6        1.529177
   7       26.804659
   8       29.128749
   9       29.128760
  10       29.128760
  11       31.683804
  12       31.683805
  13       31.683805
  14       35.184031
  15       40.316184
  16       40.316201
  17       40.316201
  18       43.093866
  19       43.093866
  20       55.805218
 
  0.9090909E-01  0.3747003E-15  0.3747003E-15  0.6010518E-02
   1       -5.263337
   2        0.647513
   3        0.761859
   4        0.761860
   5        1.509707
   6        1.509707
   7       24.437937
   8       27.463638
   9       28.304598
  10       28.304607
  11       32.954169
  12       32.954171
  13       33.540290
  14       37.326643
  15       37.850406
  16       37.850418
  17       40.929916
  18       46.088295
  19       46.088300
  20       56.807496
 
  0.1818182E+00  0.3747003E-15  0.3747003E-15  0.6010518E-02
   1       -4.396876
   2        0.514794
   3        0.858130
   4        0.858131
   5        1.511857
   6        1.511857
   7       19.651654
   8       27.026915
   9       27.223355
  10       27.223362
  11       33.517821
  12       34.121631
  13       34.121632
  14       36.211177
  15       36.211188
  16       41.215643
  17       44.224568
  18       50.561595
  19       50.561601
  20       59.473069
 
  0.2727273E+00  0.3608225E-15  0.3608225E-15  0.6010518E-02
   1       -3.100453
   2        0.480089
   3        0.850198
   4        0.850198
   5        1.662821
   6        1.662822
   7       15.101653
   8       26.365036
   9       26.461027
  10       26.461035
  11       31.944733
  12       31.944738
  13       33.633460
  14       39.048208
  15       39.048214
  16       43.444227
  17       50.746646
  18       55.485461
  19       55.485467
  20       62.478302
 
  0.3636364E+00  0.3608225E-15  0.3608225E-15  0.6010518E-02
   1       -1.860825
   2        0.758642
   3        0.758643
   4        1.004778
   5        1.901056
   6        1.901057
   7       11.071223
   8       25.660800
   9       26.044593
  10       26.044600
  11       30.112061
  12       30.112066
  13       33.935617
  14       42.711072
  15       42.711078
  16       46.125230
  17       57.422888
  18       57.422896
  19       58.088826
  20       60.923177
 
  0.4545455E+00  0.3885781E-15  0.3885781E-15  0.6010518E-02
   1       -1.361478
   2        0.688651
   3        0.688651
   4        2.065674
   5        2.065675
   6        2.395605
   7        8.027929
   8       25.229838
   9       25.900666
  10       25.900674
  11       29.092352
  12       29.092358
  13       34.149706
  14       46.604230
  15       46.604236
  16       48.944889
  17       52.717278
  18       52.717287
  19       57.116954
  20       65.939957
 
  0.9090909E-01  0.9090909E-01  0.3742002E-15  0.4507889E-02
   1       -5.164187
   2        0.593057
   3        0.801945
   4        0.801945
   5        1.426162
   6        1.571622
   7       25.572056
   8       26.356343
   9       26.356348
  10       27.735012
  11       33.777012
  12       34.004997
  13       34.726600
  14       34.726602
  15       38.152956
  16       41.043151
  17       41.043163
  18       43.279657
  19       47.976426
  20       57.327898
 
  0.1818182E+00  0.9090909E-01  0.3747003E-15  0.1803156E-01
   1       -4.487574
   2        0.456841
   3        0.903353
   4        0.912422
   5        1.354381
   6        1.617064
   7       21.444615
   8       24.868384
   9       25.656975
  10       28.863915
  11       30.994424
  12       33.938502
  13       36.509558
  14       36.706228
  15       39.468895
  16       41.255881
  17       42.737104
  18       46.725252
  19       51.205434
  20       59.828167
 
  0.2727273E+00  0.9090909E-01  0.3469447E-15  0.1803156E-01
   1       -3.324353
   2        0.340759
   3        0.866698
   4        0.956201
   5        1.524685
   6        1.744962
   7       16.779040
   8       23.895620
   9       25.010281
  10       27.846031
  11       31.388596
  12       33.686371
  13       35.389846
  14       37.231806
  15       40.923287
  16       43.980884
  17       48.354092
  18       51.470250
  19       55.525359
  20       62.532972
 
  0.3636364E+00  0.9090909E-01  0.3608225E-15  0.1803156E-01
   1       -2.006350
   2        0.486112
   3        0.724967
   4        0.890673
   5        1.948251
   6        1.987456
   7       12.542009
   8       23.479077
   9       24.353246
  10       25.822401
  11       31.886059
  12       33.384821
  13       34.747245
  14       38.559586
  15       44.250143
  16       46.794324
  17       55.249445
  18       55.588731
  19       58.428010
  20       58.632238
 
  0.4545455E+00  0.9090909E-01  0.3053113E-15  0.1803156E-01
   1       -1.280980
   2        0.599287
   3        0.805334
   4        1.135233
   5        2.085077
   6        2.919817
   7        9.012579
   8       23.279538
   9       23.673377
  10       25.012656
  11       31.660776
  12       31.795156
  13       35.669528
  14       41.650568
  15       47.755906
  16       49.381035
  17       52.156121
  18       54.621956
  19       60.981635
  20       62.739036
 
 -0.4545455E+00  0.9090909E-01  0.3885781E-15  0.1803156E-01
   1       -1.163817
   2        0.581666
   3        0.769411
   4        1.415960
   5        2.057726
   6        3.678863
   7        7.617370
   8       22.229146
   9       24.525484
  10       25.173691
  11       30.718354
  12       31.637079
  13       36.078022
  14       45.833303
  15       46.017555
  16       47.504571
  17       53.611893
  18       54.683608
  19       57.942613
  20       64.832457
 
 -0.3636364E+00  0.9090909E-01  0.4163336E-15  0.1803156E-01
   1       -1.424180
   2        0.655172
   3        0.808523
   4        0.967286
   5        1.860714
   6        2.649824
   7       10.081642
   8       21.679531
   9       25.930100
  10       26.037745
  11       30.153422
  12       31.733462
  13       36.429820
  14       41.751092
  15       43.886905
  16       49.279115
  17       52.952538
  18       58.234906
  19       58.494213
  20       61.405633
 
 -0.2727273E+00  0.9090909E-01  0.3330669E-15  0.1803156E-01
   1       -2.416420
   2        0.421844
   3        0.780853
   4        0.905346
   5        1.573206
   6        2.066777
   7       13.900931
   8       21.682146
   9       27.195934
  10       28.130142
  11       30.109801
  12       31.581506
  13       37.000270
  14       37.800068
  15       41.019229
  16       47.011516
  17       51.930743
  18       55.455706
  19       57.248422
  20       59.988941
 
 -0.1818182E+00  0.9090909E-01  0.3608225E-15  0.1803156E-01
   1       -3.753797
   2        0.399656
   3        0.874080
   4        0.957992
   5        1.366024
   6        1.743510
   7       18.300459
   8       22.207288
   9       28.646577
  10       30.029861
  11       31.097008
  12       31.216008
  13       34.381825
  14       37.661488
  15       39.371297
  16       44.021453
  17       45.854319
  18       50.023076
  19       54.925096
  20       60.789016
 
 -0.9090909E-01  0.9090909E-01  0.3747003E-15  0.9015778E-02
   1       -4.774636
   2        0.541309
   3        0.843766
   4        0.846709
   5        1.407076
   6        1.579508
   7       22.749937
   8       23.545861
   9       28.718524
  10       30.238112
  11       31.826600
  12       32.135023
  13       34.298808
  14       37.599895
  15       37.776686
  16       40.729472
  17       41.939413
  18       46.444410
  19       50.251343
  20       58.466764
 
  0.1818182E+00  0.1818182E+00  0.3742002E-15  0.4507889E-02
   1       -4.019729
   2        0.289503
   3        1.071786
   4        1.071786
   5        1.184881
   6        1.686172
   7       23.040343
   8       23.040348
   9       23.858780
  10       25.274736
  11       28.347212
  12       38.025260
  13       38.671658
  14       38.671660
  15       41.762576
  16       43.414423
  17       43.414437
  18       43.841026
  19       52.037085
  20       62.612601
 
  0.2727273E+00  0.1818182E+00  0.3747003E-15  0.1803156E-01
   1       -3.062422
   2        0.117892
   3        0.931657
   4        1.197797
   5        1.463919
   6        1.795482
   7       18.858311
   8       21.784336
   9       23.460353
  10       24.707113
  11       27.984686
  12       37.725244
  13       39.056094
  14       40.434283
  15       43.336250
  16       45.522483
  17       46.303017
  18       48.147690
  19       54.609185
  20       63.419304
 
  0.3636364E+00  0.1818182E+00  0.3747003E-15  0.1803156E-01
   1       -1.854438
   2        0.048191
   3        0.712387
   4        1.181417
   5        1.982290
   6        2.136019
   7       14.494448
   8       21.157264
   9       21.550348
  10       24.127664
  11       31.006678
  12       36.697944
  13       37.213972
  14       40.712286
  15       46.239941
  16       48.599963
  17       52.530275
  18       52.646525
  19       57.091989
  20       58.162679
 
  0.4545455E+00  0.1818182E+00  0.3608225E-15  0.1803156E-01
   1       -1.002806
   2        0.189527
   3        0.646793
   4        1.096835
   5        2.108575
   6        3.407207
   7       10.626765
   8       19.694983
   9       21.218835
  10       23.984866
  11       34.600883
  12       35.486864
  13       36.122768
  14       40.852359
  15       49.449697
  16       50.819180
  17       51.822269
  18       54.701060
  19       59.383385
  20       59.595751
 
 -0.4545455E+00  0.1818182E+00  0.4440892E-15  0.1803156E-01
   1       -0.769456
   2        0.271937
   3        0.818916
   4        1.028295
   5        2.065934
   6        5.114064
   7        7.897612
   8       18.298523
   9       22.000732
  10       24.253434
  11       34.218865
  12       34.828040
  13       39.454484
  14       41.346304
  15       45.988245
  16       47.615361
  17       54.859450
  18       57.299073
  19       62.852006
  20       63.545854
 
 -0.3636364E+00  0.1818182E+00  0.3885781E-15  0.1803156E-01
   1       -0.827551
   2        0.377369
   3        0.666976
   4        1.019639
   5        1.848436
   6        4.129847
   7        9.535230
   8       17.460547
   9       23.478036
  10       24.997137
  11       33.454225
  12       34.109235
  13       41.127102
  14       41.421462
  15       43.785242
  16       45.253393
  17       56.197549
  18       58.037860
  19       59.703337
  20       63.423952
 
 -0.2727273E+00  0.1818182E+00  0.3885781E-15  0.1803156E-01
   1       -1.431743
   2        0.282374
   3        0.571848
   4        1.084289
   5        1.526516
   6        2.843042
   7       13.170568
   8       17.220068
   9       25.572228
  10       26.273564
  11       32.968637
  12       33.202101
  13       37.213824
  14       39.986856
  15       43.340939
  16       49.961839
  17       50.856036
  18       53.872787
  19       58.746572
  20       64.608529
 
 -0.1818182E+00  0.1818182E+00  0.3330669E-15  0.9015778E-02
   1       -2.652091
   2        0.254684
   3        0.770488
   4        1.196466
   5        1.213625
   6        2.158954
   7       17.111516
   8       17.854463
   9       28.031844
  10       28.172255
  11       31.297939
  12       33.351560
  13       33.571350
  14       38.694505
  15       43.147891
  16       46.370192
  17       49.077922
  18       52.462514
  19       56.794490
  20       59.721108
 
  0.2727273E+00  0.2727273E+00  0.3742002E-15  0.4507889E-02
   1       -2.394323
   2       -0.097813
   3        1.120951
   4        1.471519
   5        1.471519
   6        1.837757
   7       20.233667
   8       20.233671
   9       20.895925
  10       22.587542
  11       25.343164
  12       42.308305
  13       42.308308
  14       43.384080
  15       44.770517
  16       45.652586
  17       47.616033
  18       47.616047
  19       55.138982
  20       63.207981
 
  0.3636364E+00  0.2727273E+00  0.3747003E-15  0.1803156E-01
   1       -1.554640
   2       -0.244987
   3        1.073211
   4        1.560984
   5        1.988576
   6        2.153561
   7       16.788917
   8       18.458374
   9       19.337012
  10       23.074613
  11       26.467470
  12       41.433944
  13       41.690534
  14       45.308891
  15       47.602569
  16       50.014377
  17       50.788158
  18       50.959837
  19       56.751862
  20       58.533605
 
  0.4545455E+00  0.2727273E+00  0.3747003E-15  0.1803156E-01
   1       -0.896373
   2       -0.257856
   3        0.911467
   4        1.494911
   5        2.128071
   6        3.691793
   7       12.833976
   8       16.375156
   9       19.179697
  10       23.176012
  11       29.927895
  12       39.590028
  13       40.322556
  14       45.870846
  15       51.173006
  16       51.830499
  17       52.421597
  18       54.800543
  19       57.121367
  20       57.400673
 
 -0.4545455E+00  0.2727273E+00  0.3885781E-15  0.1803156E-01
   1       -0.537996
   2       -0.153310
   3        0.759918
   4        1.402023
   5        2.091854
   6        5.971305
   7        9.383227
   8       14.799508
   9       19.797382
  10       23.411689
  11       34.178780
  12       38.131838
  13       39.071875
  14       46.265253
  15       46.531916
  16       48.234320
  17       56.315779
  18       58.959394
  19       61.384944
  20       62.229466
 
 -0.3636364E+00  0.2727273E+00  0.3885781E-15  0.1803156E-01
   1       -0.358820
   2        0.001410
   3        0.537401
   4        1.324632
   5        1.886121
   6        6.163338
   7        9.300457
   8       13.802641
   9       21.145030
  10       23.983757
  11       37.122903
  12       37.307553
  13       39.282590
  14       41.872278
  15       43.947998
  16       47.591636
  17       54.815957
  18       60.980976
  19       62.859172
  20       66.464136
 
 -0.2727273E+00  0.2727273E+00  0.3885781E-15  0.9015778E-02
   1       -0.568204
   2        0.263692
   3        0.272686
   4        1.249560
   5        1.630380
   6        4.148795
   7       12.336320
   8       13.834103
   9       23.114978
  10       24.960796
  11       35.413413
  12       36.198149
  13       38.020341
  14       41.106449
  15       44.884657
  16       48.104975
  17       49.516577
  18       59.527707
  19       63.668242
  20       64.729369
 
  0.3636364E+00  0.3636364E+00  0.3742002E-15  0.4507889E-02
   1       -1.285981
   2       -0.443799
   3        1.898091
   4        1.898091
   5        1.978675
   6        2.258487
   7       15.756009
   8       18.153289
   9       18.153294
  10       21.794642
  11       24.356276
  12       45.976911
  13       46.018118
  14       46.018123
  15       48.675697
  16       49.658752
  17       53.073094
  18       53.073108
  19       58.085698
  20       59.067486
 
  0.4545455E+00  0.3636364E+00  0.3747003E-15  0.1803156E-01
   1       -1.046265
   2       -0.516748
   3        1.696010
   4        1.880422
   5        2.139856
   6        3.944467
   7       13.605479
   8       15.419271
   9       17.729761
  10       22.422910
  11       25.710828
  12       43.942700
  13       45.196889
  14       50.345591
  15       51.326767
  16       52.489346
  17       53.954459
  18       55.309839
  19       57.068379
  20       57.069741
 
 -0.4545455E+00  0.3636364E+00  0.4440892E-15  0.1803156E-01
   1       -0.778357
   2       -0.442067
   3        1.311135
   4        1.777279
   5        2.137224
   6        6.215330
   7       11.809069
   8       12.202092
   9       18.130262
  10       22.794625
  11       29.402413
  12       42.136634
  13       43.376217
  14       47.811132
  15       48.981352
  16       52.488974
  17       56.952557
  18       59.125063
  19       60.047152
  20       60.111683
 
 -0.3636364E+00  0.3636364E+00  0.3885781E-15  0.9015778E-02
   1       -0.466767
   2       -0.266715
   3        0.855046
   4        1.605401
   5        1.997984
   6        8.482701
   7        8.761503
   8       11.710995
   9       19.310957
  10       23.247752
  11       33.985563
  12       40.218091
  13       40.886212
  14       43.843859
  15       45.592882
  16       53.234737
  17       53.902742
  18       61.228249
  19       63.042653
  20       63.169070
 
  0.4545455E+00  0.4545455E+00  0.3742002E-15  0.4507889E-02
   1       -1.121083
   2       -0.645075
   3        2.063173
   4        2.186554
   5        2.186554
   6        4.654874
   7       11.635297
   8       17.023329
   9       17.023333
  10       21.419573
  11       23.995857
  12       47.044651
  13       50.176786
  14       50.176793
  15       50.482611
  16       54.847155
  17       54.847166
  18       56.506790
  19       56.687654
  20       58.644575
 
 -0.4545455E+00  0.4545455E+00  0.4440892E-15  0.9015778E-02
   1       -1.028259
   2       -0.616506
   3        1.932570
   4        2.007180
   5        2.201145
   6        5.762348
   7       10.903095
   8       14.916704
   9       17.163057
  10       22.220236
  11       25.487403
  12       45.476486
  13       47.623091
  14       50.352693
  15       50.903486
  16       54.515597
  17       55.607403
  18       58.019621
  19       58.273403
  20       59.089851
 
  0.2727273E+00  0.1818182E+00  0.9090909E-01  0.1803156E-01
   1       -3.659356
   2        0.297803
   3        0.903180
   4        1.082226
   5        1.308363
   6        1.766549
   7       19.989605
   8       20.619242
   9       26.960415
  10       27.461161
  11       29.761083
  12       34.590101
  13       35.346783
  14       39.871865
  15       41.022936
  16       44.173237
  17       44.996853
  18       48.359586
  19       54.298847
  20       62.029243
 
  0.3636364E+00  0.1818182E+00  0.9090909E-01  0.3606311E-01
   1       -2.437317
   2        0.194109
   3        0.736858
   4        1.127297
   5        1.511649
   6        2.126876
   7       15.725582
   8       19.647414
   9       24.671011
  10       27.583943
  11       31.307146
  12       33.297687
  13       36.176443
  14       40.462698
  15       42.236437
  16       48.396636
  17       48.877773
  18       53.174287
  19       56.300750
  20       59.969231
 
  0.4545455E+00  0.1818182E+00  0.9090909E-01  0.3606311E-01
   1       -1.313962
   2        0.353126
   3        0.573125
   4        1.038151
   5        1.847596
   6        2.856726
   7       11.664323
   8       19.489279
   9       22.612557
  10       27.024284
  11       31.368867
  12       34.927931
  13       36.860971
  14       40.267140
  15       44.817392
  16       50.085729
  17       52.992864
  18       54.782770
  19       58.975702
  20       60.434427
 
 -0.4545455E+00  0.1818182E+00  0.9090909E-01  0.3606311E-01
   1       -0.907281
   2        0.388128
   3        0.855202
   4        0.969753
   5        2.030520
   6        4.300030
   7        8.411572
   8       19.898300
   9       21.051991
  10       26.661967
  11       30.893771
  12       35.600565
  13       38.739043
  14       41.320536
  15       45.583127
  16       48.332996
  17       53.966595
  18       57.176306
  19       60.826366
  20       62.803605
 
  0.3636364E+00  0.2727273E+00  0.9090909E-01  0.1803156E-01
   1       -2.093853
   2       -0.042870
   3        0.791795
   4        1.471570
   5        1.566979
   6        2.119914
   7       17.688328
   8       18.241948
   9       21.376025
  10       25.709191
  11       27.789111
  12       37.097669
  13       40.351994
  14       43.951909
  15       44.242833
  16       47.304515
  17       49.888198
  18       51.321598
  19       55.662926
  20       59.955773
 
  0.4545455E+00  0.2727273E+00  0.9090909E-01  0.3606311E-01
   1       -1.108062
   2       -0.083626
   3        0.599953
   4        1.430961
   5        1.885500
   6        3.030943
   7       13.750699
   8       17.655719
   9       19.135128
  10       26.131410
  11       30.417089
  12       35.507372
  13       40.793809
  14       44.070188
  15       47.006448
  16       50.639476
  17       51.548917
  18       54.332264
  19       57.158361
  20       59.854787
 
 -0.4545455E+00  0.2727273E+00  0.9090909E-01  0.3606311E-01
   1       -0.590295
   2        0.006486
   3        0.550590
   4        1.313669
   5        2.050982
   6        4.806026
   7       10.075916
   8       17.285156
   9       18.008060
  10       26.257604
  11       33.024965
  12       35.613567
  13       40.303757
  14       43.913587
  15       45.843755
  16       50.371860
  17       53.519532
  18       58.349480
  19       58.674792
  20       63.476512
 
 -0.3636364E+00  0.2727273E+00  0.9090909E-01  0.3606311E-01
   1       -0.443210
   2        0.046328
   3        0.575366
   4        1.236694
   5        2.007215
   6        6.204558
   7        8.255935
   8       16.071909
   9       18.887694
  10       26.775380
  11       32.606502
  12       39.358634
  13       39.679021
  14       41.160964
  15       44.422739
  16       48.723463
  17       55.340000
  18       59.422802
  19       62.340302
  20       63.897551
 
 -0.2727273E+00  0.2727273E+00  0.9090909E-01  0.3606311E-01
   1       -0.576355
   2        0.181886
   3        0.330398
   4        1.276329
   5        1.796723
   6        4.274344
   7       11.230587
   8       15.422693
   9       20.363806
  10       27.809246
  11       31.823994
  12       36.524665
  13       39.044505
  14       44.087305
  15       45.002385
  16       46.068103
  17       52.664277
  18       59.065462
  19       61.058784
  20       63.920914
 
 -0.1818182E+00  0.2727273E+00  0.9090909E-01  0.1803156E-01
   1       -1.328316
   2        0.101640
   3        0.499758
   4        1.345617
   5        1.498738
   6        2.895101
   7       14.771094
   8       15.720561
   9       22.332577
  10       29.275892
  11       30.361992
  12       34.028404
  13       37.859845
  14       42.023380
  15       45.771122
  16       48.113689
  17       50.620178
  18       54.326693
  19       57.647608
  20       63.805900
 
  0.4545455E+00  0.3636364E+00  0.9090909E-01  0.1803156E-01
   1       -1.057771
   2       -0.352914
   3        1.110273
   4        1.878488
   5        1.895901
   6        3.222851
   7       15.953933
   8       16.006392
   9       16.606418
  10       24.543517
  11       26.725713
  12       39.701054
  13       45.560730
  14       47.250296
  15       48.586216
  16       51.526385
  17       51.759329
  18       55.374330
  19       55.720612
  20       60.071542
 
 -0.4545455E+00  0.3636364E+00  0.9090909E-01  0.3606311E-01
   1       -0.698413
   2       -0.317322
   3        0.928590
   4        1.707235
   5        2.098726
   6        5.170144
   7       12.447003
   8       14.185320
   9       16.404624
  10       25.326262
  11       29.765596
  12       37.976655
  13       45.024674
  14       46.599137
  15       48.988238
  16       52.253201
  17       53.162137
  18       57.084724
  19       59.916995
  20       61.201411
 
 -0.3636364E+00  0.3636364E+00  0.9090909E-01  0.3606311E-01
   1       -0.406301
   2       -0.200187
   3        0.674719
   4        1.535709
   5        2.074827
   6        7.705030
   7        9.194081
   8       12.883238
   9       17.162186
  10       25.856269
  11       34.018937
  12       36.519876
  13       41.907570
  14       43.697169
  15       49.087737
  16       50.416906
  17       56.734709
  18       57.780562
  19       60.980881
  20       63.079454
 
 -0.2727273E+00  0.3636364E+00  0.9090909E-01  0.1803156E-01
   1       -0.169359
   2       -0.090448
   3        0.356471
   4        1.423999
   5        1.910985
   6        6.332800
   7       10.497143
   8       12.649058
   9       18.518556
  10       26.739475
  11       34.478390
  12       37.592149
  13       39.992029
  14       41.855650
  15       46.095576
  16       51.188176
  17       51.312345
  18       61.830183
  19       62.158646
  20       65.821703
 
 -0.4545455E+00  0.4545455E+00  0.9090909E-01  0.1803156E-01
   1       -0.937459
   2       -0.534608
   3        1.583791
   4        1.948966
   5        2.186286
   6        5.535916
   7       11.848800
   8       14.991699
   9       15.606785
  10       23.980407
  11       26.275094
  12       42.319628
  13       47.916281
  14       49.283727
  15       50.314547
  16       54.492167
  17       55.394064
  18       56.306459
  19       58.363056
  20       59.608073
 
 -0.3636364E+00  0.4545455E+00  0.9090909E-01  0.1803156E-01
   1       -0.712964
   2       -0.399821
   3        1.169473
   4        1.769273
   5        2.183912
   6        7.257096
   7       11.193847
   8       12.032011
   9       15.949807
  10       25.069205
  11       29.551783
  12       39.835002
  13       44.039119
  14       47.286821
  15       51.315576
  16       54.912941
  17       55.387835
  18       57.673653
  19       58.350621
  20       62.199725
 
 -0.4545455E+00  0.3636364E+00  0.1818182E+00  0.1803156E-01
   1       -0.517568
   2       -0.080167
   3        0.392989
   4        1.591739
   5        1.893941
   6        4.571694
   7       13.040365
   8       14.270257
   9       17.013179
  10       29.119218
  11       30.295178
  12       34.491462
  13       43.721252
  14       45.440564
  15       47.311846
  16       49.205977
  17       50.479317
  18       59.913998
  19       61.293662
  20       61.769158
 
 -0.3636364E+00  0.3636364E+00  0.1818182E+00  0.3606311E-01
   1       -0.267053
   2       -0.031272
   3        0.325322
   4        1.467451
   5        2.063035
   6        6.836800
   7        9.953645
   8       14.322789
   9       15.404592
  10       29.544371
  11       31.750713
  12       35.667740
  13       40.545549
  14       44.848680
  15       48.223441
  16       51.225219
  17       54.282599
  18       57.391444
  19       61.768926
  20       63.156550
 
 -0.3636364E+00  0.4545455E+00  0.1818182E+00  0.1803156E-01
   1       -0.525913
   2       -0.196115
   3        0.708125
   4        1.633094
   5        2.185365
   6        7.286103
   7       12.084964
   8       12.547812
   9       13.569688
  10       28.485555
  11       30.661658
  12       36.150464
  13       41.656538
  14       49.908104
  15       50.159456
  16       53.536283
  17       54.984127
  18       55.944879
  19       59.155247
  20       60.232358
 
 -0.2727273E+00  0.4545455E+00  0.1818182E+00  0.1803156E-01
   1       -0.368089
   2        0.027471
   3        0.381074
   4        1.502655
   5        2.183966
   6        9.415333
   7        9.453416
   8       12.071058
   9       13.981718
  10       29.809319
  11       33.813662
  12       34.074324
  13       38.547377
  14       48.486255
  15       51.538349
  16       53.921041
  17       54.262371
  18       56.802928
  19       58.456721
  20       60.196805
