 running on   20 total cores
 distrk:  each k-point on   20 cores,    1 groups
 distr:  one band on    1 cores,   20 groups
 using from now: INCAR     
 vasp.5.3.3 18Dez12 (build Dec 13 2014 13:36:02) complex                        
  
 POSCAR found type information on POSCAR  Cu
 POSCAR found :  1 types and       1 ions
 scaLAPACK will be used

 ----------------------------------------------------------------------------- 
|                                                                             |
|           W    W    AA    RRRRR   N    N  II  N    N   GGGG   !!!           |
|           W    W   A  A   R    R  NN   N  II  NN   N  G    G  !!!           |
|           W    W  A    A  R    R  N N  N  II  N N  N  G       !!!           |
|           W WW W  AAAAAA  RRRRR   N  N N  II  N  N N  G  GGG   !            |
|           WW  WW  A    A  R   R   N   NN  II  N   NN  G    G                |
|           W    W  A    A  R    R  N    N  II  N    N   GGGG   !!!           |
|                                                                             |
|      For optimal performance we recommend that you set                      |
|        NPAR = 4 - approx SQRT( number of cores)                             |
|      (number of cores/NPAR must be integer)                                 |
|      This setting will greatly improve the performance of VASP for DFT.     |
|      The default NPAR=number of cores might be grossly inefficient          |
|      on modern multi-core architectures or massively parallel machines.     |
|      Do your own testing.                                                   |
|      Unfortunately you need to use the default for hybrid, GW and RPA       |
|      calculations.                                                          |
|                                                                             |
 ----------------------------------------------------------------------------- 

 LDA part: xc-table for Pade appr. of Perdew
 POSCAR, INCAR and KPOINTS ok, starting setup
 WARNING: small aliasing (wrap around) errors must be expected
 FFT: planning ...
 WAVECAR not read
 entering main loop
       N       E                     dE             d eps       ncg     rms          rms(c)
DAV:   1     0.184338203665E+01    0.18434E+01   -0.63720E+03  2460   0.808E+02
DAV:   2    -0.458822528892E+01   -0.64316E+01   -0.64000E+01  2780   0.462E+01
DAV:   3    -0.459421891385E+01   -0.59936E-02   -0.59936E-02  2520   0.166E+00
DAV:   4    -0.459421968227E+01   -0.76842E-06   -0.76906E-06  3480   0.135E-02
DAV:   5    -0.459421968229E+01   -0.15234E-10   -0.17187E-10  2480   0.247E-05    0.700E+00
DAV:   6    -0.405993795230E+01    0.53428E+00   -0.16817E+01  2260   0.313E+01    0.312E+00
DAV:   7    -0.373631483241E+01    0.32362E+00   -0.24873E+00  2260   0.120E+01    0.608E-01
DAV:   8    -0.372532811714E+01    0.10987E-01   -0.26242E-03  2340   0.415E-01    0.300E-01
DAV:   9    -0.372351562519E+01    0.18125E-02   -0.13918E-02  2600   0.843E-01    0.285E-02
DAV:  10    -0.372351617927E+01   -0.55407E-06   -0.33461E-05  2520   0.462E-02    0.834E-03
DAV:  11    -0.372351391378E+01    0.22655E-05   -0.24084E-06  2920   0.129E-02    0.385E-04
DAV:  12    -0.372351420094E+01   -0.28716E-06   -0.69783E-09  1160   0.751E-04
   1 F= -.37235142E+01 E0= -.37235206E+01  d E =0.191292E-04
 writing wavefunctions
