<?xml version="1.0" encoding="ISO-8859-1"?>
<modeling>
 <generator>
  <i name="program" type="string">vasp </i>
  <i name="version" type="string">5.3.3  </i>
  <i name="subversion" type="string">18Dez12 (build Dec 13 2014 13:36:02) complex                          parallel </i>
  <i name="platform" type="string">LinuxIFC </i>
  <i name="date" type="string">2018 11 28 </i>
  <i name="time" type="string">11:32:57 </i>
 </generator>
 <incar>
  <i type="string" name="PREC">accurate</i>
  <i type="int" name="ISPIN">     1</i>
  <i type="int" name="IBRION">    -1</i>
  <i name="EDIFF">      0.00000100</i>
  <i type="int" name="NSW">     0</i>
  <i type="int" name="ISIF">     3</i>
  <i type="int" name="ISYM">     1</i>
  <i name="ENCUT">    520.00000000</i>
  <i type="int" name="NEDOS">  5000</i>
  <i name="EMIN">    -20.00000000</i>
  <i name="EMAX">     20.00000000</i>
  <i type="int" name="ISMEAR">     1</i>
  <i name="SIGMA">      0.01000000</i>
  <i type="logical" name="LWAVE"> T  </i>
  <i type="logical" name="LCHARG"> T  </i>
 </incar>
 <kpoints>
  <generation param="Gamma">
   <v type="int" name="divisions">      11       11       11 </v>
   <v name="usershift">      0.00000000       0.00000000       0.00000000 </v>
   <v name="genvec1">      0.09090909       0.00000000       0.00000000 </v>
   <v name="genvec2">      0.00000000       0.09090909       0.00000000 </v>
   <v name="genvec3">      0.00000000       0.00000000       0.09090909 </v>
   <v name="shift">      0.00000000       0.00000000       0.00000000 </v>
  </generation>
  <varray name="kpointlist" >
   <v>       0.00000000       0.00000000       0.00000000 </v>
   <v>       0.09090909       0.00000000       0.00000000 </v>
   <v>       0.18181818       0.00000000       0.00000000 </v>
   <v>       0.27272727       0.00000000       0.00000000 </v>
   <v>       0.36363636       0.00000000       0.00000000 </v>
   <v>       0.45454545       0.00000000       0.00000000 </v>
   <v>       0.09090909       0.09090909       0.00000000 </v>
   <v>       0.18181818       0.09090909       0.00000000 </v>
   <v>       0.27272727       0.09090909       0.00000000 </v>
   <v>       0.36363636       0.09090909       0.00000000 </v>
   <v>       0.45454545       0.09090909       0.00000000 </v>
   <v>      -0.45454545       0.09090909       0.00000000 </v>
   <v>      -0.36363636       0.09090909       0.00000000 </v>
   <v>      -0.27272727       0.09090909       0.00000000 </v>
   <v>      -0.18181818       0.09090909       0.00000000 </v>
   <v>      -0.09090909       0.09090909       0.00000000 </v>
   <v>       0.18181818       0.18181818       0.00000000 </v>
   <v>       0.27272727       0.18181818       0.00000000 </v>
   <v>       0.36363636       0.18181818       0.00000000 </v>
   <v>       0.45454545       0.18181818       0.00000000 </v>
   <v>      -0.45454545       0.18181818       0.00000000 </v>
   <v>      -0.36363636       0.18181818       0.00000000 </v>
   <v>      -0.27272727       0.18181818       0.00000000 </v>
   <v>      -0.18181818       0.18181818       0.00000000 </v>
   <v>       0.27272727       0.27272727       0.00000000 </v>
   <v>       0.36363636       0.27272727       0.00000000 </v>
   <v>       0.45454545       0.27272727       0.00000000 </v>
   <v>      -0.45454545       0.27272727       0.00000000 </v>
   <v>      -0.36363636       0.27272727       0.00000000 </v>
   <v>      -0.27272727       0.27272727       0.00000000 </v>
   <v>       0.36363636       0.36363636       0.00000000 </v>
   <v>       0.45454545       0.36363636       0.00000000 </v>
   <v>      -0.45454545       0.36363636       0.00000000 </v>
   <v>      -0.36363636       0.36363636       0.00000000 </v>
   <v>       0.45454545       0.45454545       0.00000000 </v>
   <v>      -0.45454545       0.45454545       0.00000000 </v>
   <v>       0.27272727       0.18181818       0.09090909 </v>
   <v>       0.36363636       0.18181818       0.09090909 </v>
   <v>       0.45454545       0.18181818       0.09090909 </v>
   <v>      -0.45454545       0.18181818       0.09090909 </v>
   <v>       0.36363636       0.27272727       0.09090909 </v>
   <v>       0.45454545       0.27272727       0.09090909 </v>
   <v>      -0.45454545       0.27272727       0.09090909 </v>
   <v>      -0.36363636       0.27272727       0.09090909 </v>
   <v>      -0.27272727       0.27272727       0.09090909 </v>
   <v>      -0.18181818       0.27272727       0.09090909 </v>
   <v>       0.45454545       0.36363636       0.09090909 </v>
   <v>      -0.45454545       0.36363636       0.09090909 </v>
   <v>      -0.36363636       0.36363636       0.09090909 </v>
   <v>      -0.27272727       0.36363636       0.09090909 </v>
   <v>      -0.45454545       0.45454545       0.09090909 </v>
   <v>      -0.36363636       0.45454545       0.09090909 </v>
   <v>      -0.45454545       0.36363636       0.18181818 </v>
   <v>      -0.36363636       0.36363636       0.18181818 </v>
   <v>      -0.36363636       0.45454545       0.18181818 </v>
   <v>      -0.27272727       0.45454545       0.18181818 </v>
  </varray>
  <varray name="weights" >
   <v>       0.00075131 </v>
   <v>       0.00601052 </v>
   <v>       0.00601052 </v>
   <v>       0.00601052 </v>
   <v>       0.00601052 </v>
   <v>       0.00601052 </v>
   <v>       0.00450789 </v>
   <v>       0.01803156 </v>
   <v>       0.01803156 </v>
   <v>       0.01803156 </v>
   <v>       0.01803156 </v>
   <v>       0.01803156 </v>
   <v>       0.01803156 </v>
   <v>       0.01803156 </v>
   <v>       0.01803156 </v>
   <v>       0.00901578 </v>
   <v>       0.00450789 </v>
   <v>       0.01803156 </v>
   <v>       0.01803156 </v>
   <v>       0.01803156 </v>
   <v>       0.01803156 </v>
   <v>       0.01803156 </v>
   <v>       0.01803156 </v>
   <v>       0.00901578 </v>
   <v>       0.00450789 </v>
   <v>       0.01803156 </v>
   <v>       0.01803156 </v>
   <v>       0.01803156 </v>
   <v>       0.01803156 </v>
   <v>       0.00901578 </v>
   <v>       0.00450789 </v>
   <v>       0.01803156 </v>
   <v>       0.01803156 </v>
   <v>       0.00901578 </v>
   <v>       0.00450789 </v>
   <v>       0.00901578 </v>
   <v>       0.01803156 </v>
   <v>       0.03606311 </v>
   <v>       0.03606311 </v>
   <v>       0.03606311 </v>
   <v>       0.01803156 </v>
   <v>       0.03606311 </v>
   <v>       0.03606311 </v>
   <v>       0.03606311 </v>
   <v>       0.03606311 </v>
   <v>       0.01803156 </v>
   <v>       0.01803156 </v>
   <v>       0.03606311 </v>
   <v>       0.03606311 </v>
   <v>       0.01803156 </v>
   <v>       0.01803156 </v>
   <v>       0.01803156 </v>
   <v>       0.01803156 </v>
   <v>       0.03606311 </v>
   <v>       0.01803156 </v>
   <v>       0.01803156 </v>
  </varray>
 </kpoints>
 <parameters>
  <separator name="general" >
   <i type="string" name="SYSTEM"></i>
   <i type="logical" name="LCOMPAT"> F  </i>
  </separator>
  <separator name="electronic" >
   <i type="string" name="PREC">accura</i>
   <i name="ENMAX">    520.00000000</i>
   <i name="ENAUG">    516.45600000</i>
   <i name="EDIFF">      0.00000100</i>
   <i type="int" name="IALGO">    38</i>
   <i type="int" name="IWAVPR">    10</i>
   <i type="int" name="NBANDS">    20</i>
   <i name="NELECT">     11.00000000</i>
   <i type="int" name="TURBO">     0</i>
   <i type="int" name="IRESTART">     0</i>
   <i type="int" name="NREBOOT">     0</i>
   <i type="int" name="NMIN">     0</i>
   <i name="EREF">      0.00000000</i>
   <separator name="electronic smearing" >
    <i type="int" name="ISMEAR">     1</i>
    <i name="SIGMA">      0.01000000</i>
    <i name="KSPACING">      0.50000000</i>
    <i type="logical" name="KGAMMA"> T  </i>
   </separator>
   <separator name="electronic projectors" >
    <i type="logical" name="LREAL"> F  </i>
    <v name="ROPT">      0.00000000</v>
    <i type="int" name="LMAXPAW">  -100</i>
    <i type="int" name="LMAXMIX">     2</i>
    <i type="logical" name="NLSPLINE"> F  </i>
   </separator>
   <separator name="electronic startup" >
    <i type="int" name="ISTART">     0</i>
    <i type="int" name="ICHARG">     2</i>
    <i type="int" name="INIWAV">     1</i>
   </separator>
   <separator name="electronic spin" >
    <i type="int" name="ISPIN">     1</i>
    <i type="logical" name="LNONCOLLINEAR"> F  </i>
    <v name="MAGMOM">      1.00000000</v>
    <i name="NUPDOWN">     -1.00000000</i>
    <i type="logical" name="LSORBIT"> F  </i>
    <v name="SAXIS">      0.00000000      0.00000000      1.00000000</v>
    <i type="logical" name="LSPIRAL"> F  </i>
    <v name="QSPIRAL">      0.00000000      0.00000000      0.00000000</v>
    <i type="logical" name="LZEROZ"> F  </i>
   </separator>
   <separator name="electronic exchange-correlation" >
    <i type="logical" name="LASPH"> F  </i>
    <i type="logical" name="LMETAGGA"> F  </i>
   </separator>
   <separator name="electronic convergence" >
    <i type="int" name="NELM">    60</i>
    <i type="int" name="NELMDL">    -5</i>
    <i type="int" name="NELMIN">     2</i>
    <i name="ENINI">    520.00000000</i>
    <separator name="electronic convergence detail" >
     <i type="logical" name="LDIAG"> T  </i>
     <i type="logical" name="LSUBROT"> T  </i>
     <i name="WEIMIN">      0.00000000</i>
     <i name="EBREAK">      0.00000001</i>
     <i name="DEPER">      0.30000000</i>
     <i type="int" name="NRMM">     4</i>
     <i name="TIME">      0.40000000</i>
    </separator>
   </separator>
   <separator name="electronic mixer" >
    <i name="AMIX">      0.40000000</i>
    <i name="BMIX">      1.00000000</i>
    <i name="AMIN">      0.10000000</i>
    <i name="AMIX_MAG">      1.60000000</i>
    <i name="BMIX_MAG">      1.00000000</i>
    <separator name="electronic mixer details" >
     <i type="int" name="IMIX">     4</i>
     <i type="int" name="MAXMIX">   -45</i>
     <i name="WC">    100.00000000</i>
     <i type="int" name="INIMIX">     1</i>
     <i type="int" name="MIXPRE">     1</i>
     <i type="int" name="MREMOVE">     5</i>
    </separator>
   </separator>
   <separator name="electronic dipolcorrection" >
    <i type="logical" name="LDIPOL"> F  </i>
    <i type="logical" name="LMONO"> F  </i>
    <i type="int" name="IDIPOL">     0</i>
    <i name="EPSILON">      1.00000000</i>
    <v name="DIPOL">   -100.00000000   -100.00000000   -100.00000000</v>
    <i name="EFIELD">      0.00000000</i>
   </separator>
  </separator>
  <separator name="grids" >
   <i type="int" name="NGX">    20</i>
   <i type="int" name="NGY">    20</i>
   <i type="int" name="NGZ">    20</i>
   <i type="int" name="NGXF">    40</i>
   <i type="int" name="NGYF">    40</i>
   <i type="int" name="NGZF">    40</i>
   <i type="logical" name="ADDGRID"> F  </i>
  </separator>
  <separator name="ionic" >
   <i type="int" name="NSW">     0</i>
   <i type="int" name="IBRION">    -1</i>
   <i type="int" name="ISIF">     3</i>
   <i name="PSTRESS">      0.00000000</i>
   <i name="EDIFFG">      0.00001000</i>
   <i type="int" name="NFREE">     0</i>
   <i name="POTIM">      0.50000000</i>
   <i name="SMASS">     -3.00000000</i>
   <i name="SCALEE">      1.00000000</i>
  </separator>
  <separator name="ionic md" >
   <i name="TEBEG">      0.00010000</i>
   <i name="TEEND">      0.00010000</i>
   <i type="int" name="NBLOCK">     1</i>
   <i type="int" name="KBLOCK">     1</i>
   <i type="int" name="NPACO">   256</i>
   <i name="APACO">     16.00000000</i>
  </separator>
  <separator name="symmetry" >
   <i type="int" name="ISYM">     1</i>
   <i name="SYMPREC">      0.00001000</i>
  </separator>
  <separator name="dos" >
   <i type="logical" name="LORBIT"> F  </i>
   <v name="RWIGS">     -1.00000000</v>
   <i type="int" name="NEDOS">  5000</i>
   <i name="EMIN">    -20.00000000</i>
   <i name="EMAX">     20.00000000</i>
   <i name="EFERMI">      0.00000000</i>
  </separator>
  <separator name="writing" >
   <i type="int" name="NWRITE">     2</i>
   <i type="logical" name="LWAVE"> T  </i>
   <i type="logical" name="LCHARG"> T  </i>
   <i type="logical" name="LPARD"> F  </i>
   <i type="logical" name="LVTOT"> F  </i>
   <i type="logical" name="LVHAR"> F  </i>
   <i type="logical" name="LELF"> F  </i>
   <i type="logical" name="LOPTICS"> F  </i>
   <v name="STM">      0.00000000      0.00000000      0.00000000      0.00000000      0.00000000      0.00000000      0.00000000</v>
  </separator>
  <separator name="performance" >
   <i type="int" name="NPAR">    20</i>
   <i type="int" name="NSIM">     4</i>
   <i type="int" name="NBLK">    -1</i>
   <i type="logical" name="LPLANE"> T  </i>
   <i type="logical" name="LSCALAPACK"> T  </i>
   <i type="logical" name="LSCAAWARE"> F  </i>
   <i type="logical" name="LSCALU"> F  </i>
   <i type="logical" name="LASYNC"> F  </i>
   <i type="logical" name="LORBITALREAL"> F  </i>
  </separator>
  <separator name="miscellaneous" >
   <i type="int" name="IDIOT">     3</i>
   <i type="logical" name="LMUSIC"> F  </i>
   <v name="POMASS">     63.54600000</v>
   <v name="DARWINR">      0.00000000</v>
   <v name="DARWINV">      1.00000000</v>
   <i type="logical" name="LCORR"> T  </i>
  </separator>
  <i type="logical" name="GGA_COMPAT"> T  </i>
  <i type="logical" name="LBERRY"> F  </i>
  <i type="int" name="ICORELEVEL">     0</i>
  <i type="logical" name="LDAU"> F  </i>
  <i type="int" name="I_CONSTRAINED_M">     0</i>
  <separator name="electronic exchange-correlation" >
   <i type="string" name="GGA">--</i>
   <i type="int" name="VOSKOWN">     0</i>
   <i type="logical" name="LHFCALC"> F  </i>
   <i type="string" name="PRECFOCK"></i>
   <i type="logical" name="LSYMGRAD"> F  </i>
   <i type="logical" name="LHFONE"> F  </i>
   <i type="logical" name="LRHFCALC"> F  </i>
   <i type="logical" name="LTHOMAS"> F  </i>
   <i type="logical" name="LMODELHF"> F  </i>
   <i name="ENCUT4O">     -1.00000000</i>
   <i type="int" name="EXXOEP">     0</i>
   <i type="int" name="FOURORBIT">     0</i>
   <i name="AEXX">      0.00000000</i>
   <i name="HFALPHA">      0.00000000</i>
   <i name="MCALPHA">      0.00000000</i>
   <i name="ALDAX">      1.00000000</i>
   <i name="AGGAX">      1.00000000</i>
   <i name="ALDAC">      1.00000000</i>
   <i name="AGGAC">      1.00000000</i>
   <i type="int" name="NKREDX">     1</i>
   <i type="int" name="NKREDY">     1</i>
   <i type="int" name="NKREDZ">     1</i>
   <i type="logical" name="SHIFTRED"> F  </i>
   <i type="logical" name="ODDONLY"> F  </i>
   <i type="logical" name="EVENONLY"> F  </i>
   <i type="int" name="LMAXFOCK">     0</i>
   <i type="int" name="NMAXFOCKAE">     0</i>
   <i type="logical" name="LFOCKAEDFT"> F  </i>
   <i name="HFSCREEN">      0.00000000</i>
   <i name="HFSCREENC">      0.00000000</i>
   <i type="int" name="NBANDSGWLOW">     0</i>
  </separator>
  <separator name="vdW DFT" >
   <i type="logical" name="LUSE_VDW"> F  </i>
   <i name="Zab_VDW">     -0.84910000</i>
   <i name="PARAM1">      0.12340000</i>
   <i name="PARAM2">      1.00000000</i>
   <i name="PARAM3">      0.00000000</i>
  </separator>
  <separator name="model GW" >
   <i type="int" name="MODEL_GW">     0</i>
   <i name="MODEL_EPS0">      7.12313378</i>
   <i name="MODEL_ALPHA">      1.00000000</i>
  </separator>
  <separator name="linear response parameters" >
   <i type="logical" name="LEPSILON"> F  </i>
   <i type="logical" name="LRPA"> F  </i>
   <i type="logical" name="LNABLA"> F  </i>
   <i type="logical" name="LVEL"> F  </i>
   <i type="int" name="KINTER">     0</i>
   <i name="CSHIFT">      0.10000000</i>
   <i name="OMEGAMAX">     -1.00000000</i>
   <i name="DEG_THRESHOLD">      0.00200000</i>
  </separator>
  <separator name="orbital magnetization" >
   <i type="logical" name="NUCIND"> F  </i>
   <v name="MAGPOS">      0.00000000      0.00000000      0.00000000</v>
   <i type="logical" name="LNICSALL"> T  </i>
   <i type="logical" name="ORBITALMAG"> F  </i>
   <i type="logical" name="LMAGBLOCH"> F  </i>
   <i type="logical" name="LCHIMAG"> F  </i>
   <i type="logical" name="LGAUGE"> T  </i>
   <i type="int" name="MAGATOM">     0</i>
   <v name="MAGDIPOL">      0.00000000      0.00000000      0.00000000</v>
   <v name="AVECCONST">      0.00000000      0.00000000      0.00000000</v>
  </separator>
  <separator name="response functions" >
   <i type="logical" name="LADDER"> F  </i>
   <i type="logical" name="LFXC"> F  </i>
   <i type="logical" name="LHARTREE"> T  </i>
   <i type="int" name="IBSE">     0</i>
   <i type="logical" name="LTCTE"> F  </i>
   <i type="logical" name="LTETE"> F  </i>
   <i type="logical" name="LTRIPLET"> F  </i>
   <i type="logical" name="LFXCEPS"> F  </i>
   <i type="logical" name="L2ORDER"> F  </i>
   <i type="logical" name="LUSEW"> F  </i>
   <i name="ENCUTGW">     -2.00000000</i>
   <i name="ENCUTGWSOFT">     -2.00000000</i>
   <i name="ENCUTLF">     -1.00000000</i>
   <i type="int" name="LMAXMP2">    -1</i>
   <i name="SCISSOR">      0.00000000</i>
   <i type="int" name="NOMEGA">     0</i>
   <i type="int" name="NOMEGAR">     0</i>
   <i type="int" name="NBANDSGW">    -1</i>
   <i type="int" name="NBANDSO">    -1</i>
   <i type="int" name="NBANDSV">    -1</i>
   <i type="int" name="NELM">     1</i>
   <i type="int" name="DIM">     3</i>
   <i type="int" name="ANTIRES">     0</i>
   <i name="OMEGAMAX">    -30.00000000</i>
   <i name="OMEGATL">   -200.00000000</i>
   <i type="int" name="OMEGAGRID">     0</i>
   <i name="CSHIFT">     -0.10000000</i>
   <i type="logical" name="SELFENERGY"> F  </i>
   <i type="logical" name="LSPECTRAL"> F  </i>
   <i type="logical" name="ODDONLYGW"> F  </i>
   <i type="logical" name="EVENONLYGW"> F  </i>
   <i type="int" name="NKREDLFX">     1</i>
   <i type="int" name="NKREDLFY">     1</i>
   <i type="int" name="NKREDLFZ">     1</i>
   <i type="int" name="MAXMEM">  1800</i>
   <i type="int" name="TELESCOPE">     0</i>
  </separator>
 </parameters>
 <atominfo>
  <atoms>       1 </atoms>
  <types>       1 </types>
  <array name="atoms" >
   <dimension dim="1">ion</dimension>
   <field type="string">element</field>
   <field type="int">atomtype</field>
   <set>
    <rc><c>Cu</c><c>   1</c></rc>
   </set>
  </array>
  <array name="atomtypes" >
   <dimension dim="1">type</dimension>
   <field type="int">atomspertype</field>
   <field type="string">element</field>
   <field>mass</field>
   <field>valence</field>
   <field type="string">pseudopotential</field>
   <set>
    <rc><c>   1</c><c>Cu</c><c>     63.54600000</c><c>     11.00000000</c><c> PAW_PBE Cu 05Jan2001                   </c></rc>
   </set>
  </array>
 </atominfo>
 <structure name="initialpos" >
  <crystal>
   <varray name="basis" >
    <v>      -1.81063100      -1.81063100       0.00000000 </v>
    <v>      -1.81063100       0.00000000      -1.81063100 </v>
    <v>       0.00000000      -1.81063100      -1.81063100 </v>
   </varray>
   <i name="volume">     11.87188964 </i>
   <varray name="rec_basis" >
    <v>      -0.27614682      -0.27614682       0.27614682 </v>
    <v>      -0.27614682       0.27614682      -0.27614682 </v>
    <v>       0.27614682      -0.27614682      -0.27614682 </v>
   </varray>
  </crystal>
  <varray name="positions" >
   <v>       0.00000000       0.00000000       0.00000000 </v>
  </varray>
 </structure>
 <calculation>
  <scstep>
   <time name="dav">    0.25    0.25</time>
   <time name="total">    0.29    0.30</time>
   <energy>
    <i name="alphaZ">    107.61766398 </i>
    <i name="ewald">  -1103.00574823 </i>
    <i name="hartreedc">   -327.19711362 </i>
    <i name="XCdc">     43.88787620 </i>
    <i name="pawpsdc">   1082.05229236 </i>
    <i name="pawaedc">  -1226.07700675 </i>
    <i name="eentropy">      0.00001719 </i>
    <i name="bandstr">     33.58856605 </i>
    <i name="atom">   1390.97683486 </i>
    <i name="e_fr_energy">      1.84338204 </i>
    <i name="e_wo_entrp">      1.84336484 </i>
    <i name="e_0_energy">      1.84337631 </i>
   </energy>
  </scstep>
  <scstep>
   <time name="dav">    0.29    0.30</time>
   <time name="total">    0.30    0.30</time>
   <energy>
    <i name="e_fr_energy">     -4.58822529 </i>
    <i name="e_wo_entrp">     -4.58819054 </i>
    <i name="e_0_energy">     -4.58821371 </i>
   </energy>
  </scstep>
  <scstep>
   <time name="dav">    0.26    0.26</time>
   <time name="total">    0.26    0.26</time>
   <energy>
    <i name="e_fr_energy">     -4.59421891 </i>
    <i name="e_wo_entrp">     -4.59418416 </i>
    <i name="e_0_energy">     -4.59420733 </i>
   </energy>
  </scstep>
  <scstep>
   <time name="dav">    0.43    0.43</time>
   <time name="total">    0.43    0.43</time>
   <energy>
    <i name="e_fr_energy">     -4.59421968 </i>
    <i name="e_wo_entrp">     -4.59418493 </i>
    <i name="e_0_energy">     -4.59420810 </i>
   </energy>
  </scstep>
  <scstep>
   <time name="dav">    0.25    0.25</time>
   <time name="total">    0.26    0.27</time>
   <energy>
    <i name="e_fr_energy">     -4.59421968 </i>
    <i name="e_wo_entrp">     -4.59418493 </i>
    <i name="e_0_energy">     -4.59420810 </i>
   </energy>
  </scstep>
  <scstep>
   <time name="dav">    0.20    0.20</time>
   <time name="total">    0.22    0.22</time>
   <energy>
    <i name="e_fr_energy">     -4.05993795 </i>
    <i name="e_wo_entrp">     -4.05995515 </i>
    <i name="e_0_energy">     -4.05994368 </i>
   </energy>
  </scstep>
  <scstep>
   <time name="dav">    0.21    0.21</time>
   <time name="total">    0.22    0.23</time>
   <energy>
    <i name="e_fr_energy">     -3.73631483 </i>
    <i name="e_wo_entrp">     -3.73631928 </i>
    <i name="e_0_energy">     -3.73631632 </i>
   </energy>
  </scstep>
  <scstep>
   <time name="dav">    0.22    0.22</time>
   <time name="total">    0.24    0.24</time>
   <energy>
    <i name="e_fr_energy">     -3.72532812 </i>
    <i name="e_wo_entrp">     -3.72534531 </i>
    <i name="e_0_energy">     -3.72533385 </i>
   </energy>
  </scstep>
  <scstep>
   <time name="dav">    0.27    0.28</time>
   <time name="total">    0.29    0.30</time>
   <energy>
    <i name="e_fr_energy">     -3.72351563 </i>
    <i name="e_wo_entrp">     -3.72353595 </i>
    <i name="e_0_energy">     -3.72352240 </i>
   </energy>
  </scstep>
  <scstep>
   <time name="dav">    0.25    0.25</time>
   <time name="total">    0.27    0.27</time>
   <energy>
    <i name="e_fr_energy">     -3.72351618 </i>
    <i name="e_wo_entrp">     -3.72353550 </i>
    <i name="e_0_energy">     -3.72352262 </i>
   </energy>
  </scstep>
  <scstep>
   <time name="dav">    0.32    0.32</time>
   <time name="total">    0.34    0.34</time>
   <energy>
    <i name="e_fr_energy">     -3.72351391 </i>
    <i name="e_wo_entrp">     -3.72353304 </i>
    <i name="e_0_energy">     -3.72352029 </i>
   </energy>
  </scstep>
  <scstep>
   <time name="dav">    0.10    0.11</time>
   <time name="total">    0.11    0.11</time>
   <energy>
    <i name="alphaZ">    107.61766398 </i>
    <i name="ewald">  -1103.00574823 </i>
    <i name="hartreedc">   -305.11406288 </i>
    <i name="XCdc">     42.79884829 </i>
    <i name="pawpsdc">   1097.43920431 </i>
    <i name="pawaedc">  -1242.19296182 </i>
    <i name="eentropy">      0.00001913 </i>
    <i name="bandstr">      7.75668817 </i>
    <i name="atom">   1390.97683486 </i>
    <i name="e_fr_energy">     -3.72351420 </i>
    <i name="e_wo_entrp">     -3.72353333 </i>
    <i name="e_0_energy">     -3.72352058 </i>
   </energy>
  </scstep>
  <structure>
   <crystal>
    <varray name="basis" >
     <v>      -1.81063100      -1.81063100       0.00000000 </v>
     <v>      -1.81063100       0.00000000      -1.81063100 </v>
     <v>       0.00000000      -1.81063100      -1.81063100 </v>
    </varray>
    <i name="volume">     11.87188964 </i>
    <varray name="rec_basis" >
     <v>      -0.27614682      -0.27614682       0.27614682 </v>
     <v>      -0.27614682       0.27614682      -0.27614682 </v>
     <v>       0.27614682      -0.27614682      -0.27614682 </v>
    </varray>
   </crystal>
   <varray name="positions" >
    <v>       0.00000000       0.00000000       0.00000000 </v>
   </varray>
  </structure>
  <varray name="forces" >
   <v>      -0.00000000       0.00000000       0.00000000 </v>
  </varray>
  <varray name="stress" >
   <v>      15.81584228       0.00000000       0.00000000 </v>
   <v>       0.00000000      15.81584228       0.00000000 </v>
   <v>      -0.00000000      -0.00000000      15.81584228 </v>
  </varray>
  <energy>
   <i name="e_fr_energy">     -3.72351420 </i>
   <i name="e_wo_entrp">     -3.72352058 </i>
   <i name="e_0_energy">      0.00001913 </i>
  </energy>
  <time name="totalsc">    3.49    3.54</time>
  <eigenvalues>
   <array>
    <dimension dim="1">band</dimension>
    <dimension dim="2">kpoint</dimension>
    <dimension dim="3">spin</dimension>
    <field>eigene</field>
    <field>occ</field>
    <set>
     <set comment="spin 1">
      <set comment="kpoint 1">
       <r>   -5.5622    1.0000 </r>
       <r>    0.7080    1.0000 </r>
       <r>    0.7080    1.0000 </r>
       <r>    0.7080    1.0000 </r>
       <r>    1.5292    1.0000 </r>
       <r>    1.5292    1.0000 </r>
       <r>   26.8047    0.0000 </r>
       <r>   29.1287    0.0000 </r>
       <r>   29.1288    0.0000 </r>
       <r>   29.1288    0.0000 </r>
       <r>   31.6838    0.0000 </r>
       <r>   31.6838    0.0000 </r>
       <r>   31.6838    0.0000 </r>
       <r>   35.1840    0.0000 </r>
       <r>   40.3162    0.0000 </r>
       <r>   40.3162    0.0000 </r>
       <r>   40.3162    0.0000 </r>
       <r>   43.0939    0.0000 </r>
       <r>   43.0939    0.0000 </r>
       <r>   55.8052    0.0000 </r>
      </set>
      <set comment="kpoint 2">
       <r>   -5.2633    1.0000 </r>
       <r>    0.6475    1.0000 </r>
       <r>    0.7619    1.0000 </r>
       <r>    0.7619    1.0000 </r>
       <r>    1.5097    1.0000 </r>
       <r>    1.5097    1.0000 </r>
       <r>   24.4379    0.0000 </r>
       <r>   27.4636    0.0000 </r>
       <r>   28.3046    0.0000 </r>
       <r>   28.3046    0.0000 </r>
       <r>   32.9542    0.0000 </r>
       <r>   32.9542    0.0000 </r>
       <r>   33.5403    0.0000 </r>
       <r>   37.3266    0.0000 </r>
       <r>   37.8504    0.0000 </r>
       <r>   37.8504    0.0000 </r>
       <r>   40.9299    0.0000 </r>
       <r>   46.0883    0.0000 </r>
       <r>   46.0883    0.0000 </r>
       <r>   56.8075    0.0000 </r>
      </set>
      <set comment="kpoint 3">
       <r>   -4.3969    1.0000 </r>
       <r>    0.5148    1.0000 </r>
       <r>    0.8581    1.0000 </r>
       <r>    0.8581    1.0000 </r>
       <r>    1.5119    1.0000 </r>
       <r>    1.5119    1.0000 </r>
       <r>   19.6517    0.0000 </r>
       <r>   27.0269    0.0000 </r>
       <r>   27.2234    0.0000 </r>
       <r>   27.2234    0.0000 </r>
       <r>   33.5178    0.0000 </r>
       <r>   34.1216    0.0000 </r>
       <r>   34.1216    0.0000 </r>
       <r>   36.2112    0.0000 </r>
       <r>   36.2112    0.0000 </r>
       <r>   41.2156    0.0000 </r>
       <r>   44.2246    0.0000 </r>
       <r>   50.5616    0.0000 </r>
       <r>   50.5616    0.0000 </r>
       <r>   59.4731    0.0000 </r>
      </set>
      <set comment="kpoint 4">
       <r>   -3.1005    1.0000 </r>
       <r>    0.4801    1.0000 </r>
       <r>    0.8502    1.0000 </r>
       <r>    0.8502    1.0000 </r>
       <r>    1.6628    1.0000 </r>
       <r>    1.6628    1.0000 </r>
       <r>   15.1017    0.0000 </r>
       <r>   26.3650    0.0000 </r>
       <r>   26.4610    0.0000 </r>
       <r>   26.4610    0.0000 </r>
       <r>   31.9447    0.0000 </r>
       <r>   31.9447    0.0000 </r>
       <r>   33.6335    0.0000 </r>
       <r>   39.0482    0.0000 </r>
       <r>   39.0482    0.0000 </r>
       <r>   43.4442    0.0000 </r>
       <r>   50.7466    0.0000 </r>
       <r>   55.4855    0.0000 </r>
       <r>   55.4855    0.0000 </r>
       <r>   62.4783    0.0000 </r>
      </set>
      <set comment="kpoint 5">
       <r>   -1.8608    1.0000 </r>
       <r>    0.7586    1.0000 </r>
       <r>    0.7586    1.0000 </r>
       <r>    1.0048    1.0000 </r>
       <r>    1.9011    1.0000 </r>
       <r>    1.9011    1.0000 </r>
       <r>   11.0712    0.0000 </r>
       <r>   25.6608    0.0000 </r>
       <r>   26.0446    0.0000 </r>
       <r>   26.0446    0.0000 </r>
       <r>   30.1121    0.0000 </r>
       <r>   30.1121    0.0000 </r>
       <r>   33.9356    0.0000 </r>
       <r>   42.7111    0.0000 </r>
       <r>   42.7111    0.0000 </r>
       <r>   46.1252    0.0000 </r>
       <r>   57.4229    0.0000 </r>
       <r>   57.4229    0.0000 </r>
       <r>   58.0888    0.0000 </r>
       <r>   60.9232    0.0000 </r>
      </set>
      <set comment="kpoint 6">
       <r>   -1.3615    1.0000 </r>
       <r>    0.6887    1.0000 </r>
       <r>    0.6887    1.0000 </r>
       <r>    2.0657    1.0000 </r>
       <r>    2.0657    1.0000 </r>
       <r>    2.3956    1.0000 </r>
       <r>    8.0279    0.0000 </r>
       <r>   25.2298    0.0000 </r>
       <r>   25.9007    0.0000 </r>
       <r>   25.9007    0.0000 </r>
       <r>   29.0924    0.0000 </r>
       <r>   29.0924    0.0000 </r>
       <r>   34.1497    0.0000 </r>
       <r>   46.6042    0.0000 </r>
       <r>   46.6042    0.0000 </r>
       <r>   48.9449    0.0000 </r>
       <r>   52.7173    0.0000 </r>
       <r>   52.7173    0.0000 </r>
       <r>   57.1170    0.0000 </r>
       <r>   65.9400    0.0000 </r>
      </set>
      <set comment="kpoint 7">
       <r>   -5.1642    1.0000 </r>
       <r>    0.5931    1.0000 </r>
       <r>    0.8019    1.0000 </r>
       <r>    0.8019    1.0000 </r>
       <r>    1.4262    1.0000 </r>
       <r>    1.5716    1.0000 </r>
       <r>   25.5721    0.0000 </r>
       <r>   26.3563    0.0000 </r>
       <r>   26.3563    0.0000 </r>
       <r>   27.7350    0.0000 </r>
       <r>   33.7770    0.0000 </r>
       <r>   34.0050    0.0000 </r>
       <r>   34.7266    0.0000 </r>
       <r>   34.7266    0.0000 </r>
       <r>   38.1530    0.0000 </r>
       <r>   41.0432    0.0000 </r>
       <r>   41.0432    0.0000 </r>
       <r>   43.2797    0.0000 </r>
       <r>   47.9764    0.0000 </r>
       <r>   57.3279    0.0000 </r>
      </set>
      <set comment="kpoint 8">
       <r>   -4.4876    1.0000 </r>
       <r>    0.4568    1.0000 </r>
       <r>    0.9034    1.0000 </r>
       <r>    0.9124    1.0000 </r>
       <r>    1.3544    1.0000 </r>
       <r>    1.6171    1.0000 </r>
       <r>   21.4446    0.0000 </r>
       <r>   24.8684    0.0000 </r>
       <r>   25.6570    0.0000 </r>
       <r>   28.8639    0.0000 </r>
       <r>   30.9944    0.0000 </r>
       <r>   33.9385    0.0000 </r>
       <r>   36.5096    0.0000 </r>
       <r>   36.7062    0.0000 </r>
       <r>   39.4689    0.0000 </r>
       <r>   41.2559    0.0000 </r>
       <r>   42.7371    0.0000 </r>
       <r>   46.7253    0.0000 </r>
       <r>   51.2054    0.0000 </r>
       <r>   59.8282    0.0000 </r>
      </set>
      <set comment="kpoint 9">
       <r>   -3.3244    1.0000 </r>
       <r>    0.3408    1.0000 </r>
       <r>    0.8667    1.0000 </r>
       <r>    0.9562    1.0000 </r>
       <r>    1.5247    1.0000 </r>
       <r>    1.7450    1.0000 </r>
       <r>   16.7790    0.0000 </r>
       <r>   23.8956    0.0000 </r>
       <r>   25.0103    0.0000 </r>
       <r>   27.8460    0.0000 </r>
       <r>   31.3886    0.0000 </r>
       <r>   33.6864    0.0000 </r>
       <r>   35.3898    0.0000 </r>
       <r>   37.2318    0.0000 </r>
       <r>   40.9233    0.0000 </r>
       <r>   43.9809    0.0000 </r>
       <r>   48.3541    0.0000 </r>
       <r>   51.4702    0.0000 </r>
       <r>   55.5254    0.0000 </r>
       <r>   62.5330    0.0000 </r>
      </set>
      <set comment="kpoint 10">
       <r>   -2.0063    1.0000 </r>
       <r>    0.4861    1.0000 </r>
       <r>    0.7250    1.0000 </r>
       <r>    0.8907    1.0000 </r>
       <r>    1.9483    1.0000 </r>
       <r>    1.9875    1.0000 </r>
       <r>   12.5420    0.0000 </r>
       <r>   23.4791    0.0000 </r>
       <r>   24.3532    0.0000 </r>
       <r>   25.8224    0.0000 </r>
       <r>   31.8861    0.0000 </r>
       <r>   33.3848    0.0000 </r>
       <r>   34.7472    0.0000 </r>
       <r>   38.5596    0.0000 </r>
       <r>   44.2501    0.0000 </r>
       <r>   46.7943    0.0000 </r>
       <r>   55.2494    0.0000 </r>
       <r>   55.5887    0.0000 </r>
       <r>   58.4280    0.0000 </r>
       <r>   58.6322    0.0000 </r>
      </set>
      <set comment="kpoint 11">
       <r>   -1.2810    1.0000 </r>
       <r>    0.5993    1.0000 </r>
       <r>    0.8053    1.0000 </r>
       <r>    1.1352    1.0000 </r>
       <r>    2.0851    1.0000 </r>
       <r>    2.9198    1.0000 </r>
       <r>    9.0126    0.0000 </r>
       <r>   23.2795    0.0000 </r>
       <r>   23.6734    0.0000 </r>
       <r>   25.0127    0.0000 </r>
       <r>   31.6608    0.0000 </r>
       <r>   31.7952    0.0000 </r>
       <r>   35.6695    0.0000 </r>
       <r>   41.6506    0.0000 </r>
       <r>   47.7559    0.0000 </r>
       <r>   49.3810    0.0000 </r>
       <r>   52.1561    0.0000 </r>
       <r>   54.6220    0.0000 </r>
       <r>   60.9816    0.0000 </r>
       <r>   62.7390    0.0000 </r>
      </set>
      <set comment="kpoint 12">
       <r>   -1.1638    1.0000 </r>
       <r>    0.5817    1.0000 </r>
       <r>    0.7694    1.0000 </r>
       <r>    1.4160    1.0000 </r>
       <r>    2.0577    1.0000 </r>
       <r>    3.6789    1.0036 </r>
       <r>    7.6174    0.0000 </r>
       <r>   22.2291    0.0000 </r>
       <r>   24.5255    0.0000 </r>
       <r>   25.1737    0.0000 </r>
       <r>   30.7184    0.0000 </r>
       <r>   31.6371    0.0000 </r>
       <r>   36.0780    0.0000 </r>
       <r>   45.8333    0.0000 </r>
       <r>   46.0176    0.0000 </r>
       <r>   47.5046    0.0000 </r>
       <r>   53.6119    0.0000 </r>
       <r>   54.6836    0.0000 </r>
       <r>   57.9426    0.0000 </r>
       <r>   64.8325    0.0000 </r>
      </set>
      <set comment="kpoint 13">
       <r>   -1.4242    1.0000 </r>
       <r>    0.6552    1.0000 </r>
       <r>    0.8085    1.0000 </r>
       <r>    0.9673    1.0000 </r>
       <r>    1.8607    1.0000 </r>
       <r>    2.6498    1.0000 </r>
       <r>   10.0816    0.0000 </r>
       <r>   21.6795    0.0000 </r>
       <r>   25.9301    0.0000 </r>
       <r>   26.0377    0.0000 </r>
       <r>   30.1534    0.0000 </r>
       <r>   31.7335    0.0000 </r>
       <r>   36.4298    0.0000 </r>
       <r>   41.7511    0.0000 </r>
       <r>   43.8869    0.0000 </r>
       <r>   49.2791    0.0000 </r>
       <r>   52.9525    0.0000 </r>
       <r>   58.2349    0.0000 </r>
       <r>   58.4942    0.0000 </r>
       <r>   61.4056    0.0000 </r>
      </set>
      <set comment="kpoint 14">
       <r>   -2.4164    1.0000 </r>
       <r>    0.4218    1.0000 </r>
       <r>    0.7809    1.0000 </r>
       <r>    0.9053    1.0000 </r>
       <r>    1.5732    1.0000 </r>
       <r>    2.0668    1.0000 </r>
       <r>   13.9009    0.0000 </r>
       <r>   21.6821    0.0000 </r>
       <r>   27.1959    0.0000 </r>
       <r>   28.1301    0.0000 </r>
       <r>   30.1098    0.0000 </r>
       <r>   31.5815    0.0000 </r>
       <r>   37.0003    0.0000 </r>
       <r>   37.8001    0.0000 </r>
       <r>   41.0192    0.0000 </r>
       <r>   47.0115    0.0000 </r>
       <r>   51.9307    0.0000 </r>
       <r>   55.4557    0.0000 </r>
       <r>   57.2484    0.0000 </r>
       <r>   59.9889    0.0000 </r>
      </set>
      <set comment="kpoint 15">
       <r>   -3.7538    1.0000 </r>
       <r>    0.3997    1.0000 </r>
       <r>    0.8741    1.0000 </r>
       <r>    0.9580    1.0000 </r>
       <r>    1.3660    1.0000 </r>
       <r>    1.7435    1.0000 </r>
       <r>   18.3005    0.0000 </r>
       <r>   22.2073    0.0000 </r>
       <r>   28.6466    0.0000 </r>
       <r>   30.0299    0.0000 </r>
       <r>   31.0970    0.0000 </r>
       <r>   31.2160    0.0000 </r>
       <r>   34.3818    0.0000 </r>
       <r>   37.6615    0.0000 </r>
       <r>   39.3713    0.0000 </r>
       <r>   44.0215    0.0000 </r>
       <r>   45.8543    0.0000 </r>
       <r>   50.0231    0.0000 </r>
       <r>   54.9251    0.0000 </r>
       <r>   60.7890    0.0000 </r>
      </set>
      <set comment="kpoint 16">
       <r>   -4.7746    1.0000 </r>
       <r>    0.5413    1.0000 </r>
       <r>    0.8438    1.0000 </r>
       <r>    0.8467    1.0000 </r>
       <r>    1.4071    1.0000 </r>
       <r>    1.5795    1.0000 </r>
       <r>   22.7499    0.0000 </r>
       <r>   23.5459    0.0000 </r>
       <r>   28.7185    0.0000 </r>
       <r>   30.2381    0.0000 </r>
       <r>   31.8266    0.0000 </r>
       <r>   32.1350    0.0000 </r>
       <r>   34.2988    0.0000 </r>
       <r>   37.5999    0.0000 </r>
       <r>   37.7767    0.0000 </r>
       <r>   40.7295    0.0000 </r>
       <r>   41.9394    0.0000 </r>
       <r>   46.4444    0.0000 </r>
       <r>   50.2513    0.0000 </r>
       <r>   58.4668    0.0000 </r>
      </set>
      <set comment="kpoint 17">
       <r>   -4.0197    1.0000 </r>
       <r>    0.2895    1.0000 </r>
       <r>    1.0718    1.0000 </r>
       <r>    1.0718    1.0000 </r>
       <r>    1.1849    1.0000 </r>
       <r>    1.6862    1.0000 </r>
       <r>   23.0403    0.0000 </r>
       <r>   23.0403    0.0000 </r>
       <r>   23.8588    0.0000 </r>
       <r>   25.2747    0.0000 </r>
       <r>   28.3472    0.0000 </r>
       <r>   38.0253    0.0000 </r>
       <r>   38.6717    0.0000 </r>
       <r>   38.6717    0.0000 </r>
       <r>   41.7626    0.0000 </r>
       <r>   43.4144    0.0000 </r>
       <r>   43.4144    0.0000 </r>
       <r>   43.8410    0.0000 </r>
       <r>   52.0371    0.0000 </r>
       <r>   62.6126    0.0000 </r>
      </set>
      <set comment="kpoint 18">
       <r>   -3.0624    1.0000 </r>
       <r>    0.1179    1.0000 </r>
       <r>    0.9317    1.0000 </r>
       <r>    1.1978    1.0000 </r>
       <r>    1.4639    1.0000 </r>
       <r>    1.7955    1.0000 </r>
       <r>   18.8583    0.0000 </r>
       <r>   21.7843    0.0000 </r>
       <r>   23.4604    0.0000 </r>
       <r>   24.7071    0.0000 </r>
       <r>   27.9847    0.0000 </r>
       <r>   37.7252    0.0000 </r>
       <r>   39.0561    0.0000 </r>
       <r>   40.4343    0.0000 </r>
       <r>   43.3363    0.0000 </r>
       <r>   45.5225    0.0000 </r>
       <r>   46.3030    0.0000 </r>
       <r>   48.1477    0.0000 </r>
       <r>   54.6092    0.0000 </r>
       <r>   63.4193    0.0000 </r>
      </set>
      <set comment="kpoint 19">
       <r>   -1.8544    1.0000 </r>
       <r>    0.0482    1.0000 </r>
       <r>    0.7124    1.0000 </r>
       <r>    1.1814    1.0000 </r>
       <r>    1.9823    1.0000 </r>
       <r>    2.1360    1.0000 </r>
       <r>   14.4944    0.0000 </r>
       <r>   21.1573    0.0000 </r>
       <r>   21.5503    0.0000 </r>
       <r>   24.1277    0.0000 </r>
       <r>   31.0067    0.0000 </r>
       <r>   36.6979    0.0000 </r>
       <r>   37.2140    0.0000 </r>
       <r>   40.7123    0.0000 </r>
       <r>   46.2399    0.0000 </r>
       <r>   48.6000    0.0000 </r>
       <r>   52.5303    0.0000 </r>
       <r>   52.6465    0.0000 </r>
       <r>   57.0920    0.0000 </r>
       <r>   58.1627    0.0000 </r>
      </set>
      <set comment="kpoint 20">
       <r>   -1.0028    1.0000 </r>
       <r>    0.1895    1.0000 </r>
       <r>    0.6468    1.0000 </r>
       <r>    1.0968    1.0000 </r>
       <r>    2.1086    1.0000 </r>
       <r>    3.4072    1.0000 </r>
       <r>   10.6268    0.0000 </r>
       <r>   19.6950    0.0000 </r>
       <r>   21.2188    0.0000 </r>
       <r>   23.9849    0.0000 </r>
       <r>   34.6009    0.0000 </r>
       <r>   35.4869    0.0000 </r>
       <r>   36.1228    0.0000 </r>
       <r>   40.8524    0.0000 </r>
       <r>   49.4497    0.0000 </r>
       <r>   50.8192    0.0000 </r>
       <r>   51.8223    0.0000 </r>
       <r>   54.7011    0.0000 </r>
       <r>   59.3834    0.0000 </r>
       <r>   59.5958    0.0000 </r>
      </set>
      <set comment="kpoint 21">
       <r>   -0.7695    1.0000 </r>
       <r>    0.2719    1.0000 </r>
       <r>    0.8189    1.0000 </r>
       <r>    1.0283    1.0000 </r>
       <r>    2.0659    1.0000 </r>
       <r>    5.1141    0.0000 </r>
       <r>    7.8976    0.0000 </r>
       <r>   18.2985    0.0000 </r>
       <r>   22.0007    0.0000 </r>
       <r>   24.2534    0.0000 </r>
       <r>   34.2189    0.0000 </r>
       <r>   34.8280    0.0000 </r>
       <r>   39.4545    0.0000 </r>
       <r>   41.3463    0.0000 </r>
       <r>   45.9882    0.0000 </r>
       <r>   47.6154    0.0000 </r>
       <r>   54.8595    0.0000 </r>
       <r>   57.2991    0.0000 </r>
       <r>   62.8520    0.0000 </r>
       <r>   63.5459    0.0000 </r>
      </set>
      <set comment="kpoint 22">
       <r>   -0.8276    1.0000 </r>
       <r>    0.3774    1.0000 </r>
       <r>    0.6670    1.0000 </r>
       <r>    1.0196    1.0000 </r>
       <r>    1.8484    1.0000 </r>
       <r>    4.1298    0.0000 </r>
       <r>    9.5352    0.0000 </r>
       <r>   17.4605    0.0000 </r>
       <r>   23.4780    0.0000 </r>
       <r>   24.9971    0.0000 </r>
       <r>   33.4542    0.0000 </r>
       <r>   34.1092    0.0000 </r>
       <r>   41.1271    0.0000 </r>
       <r>   41.4215    0.0000 </r>
       <r>   43.7852    0.0000 </r>
       <r>   45.2534    0.0000 </r>
       <r>   56.1975    0.0000 </r>
       <r>   58.0379    0.0000 </r>
       <r>   59.7033    0.0000 </r>
       <r>   63.4240    0.0000 </r>
      </set>
      <set comment="kpoint 23">
       <r>   -1.4317    1.0000 </r>
       <r>    0.2824    1.0000 </r>
       <r>    0.5718    1.0000 </r>
       <r>    1.0843    1.0000 </r>
       <r>    1.5265    1.0000 </r>
       <r>    2.8430    1.0000 </r>
       <r>   13.1706    0.0000 </r>
       <r>   17.2201    0.0000 </r>
       <r>   25.5722    0.0000 </r>
       <r>   26.2736    0.0000 </r>
       <r>   32.9686    0.0000 </r>
       <r>   33.2021    0.0000 </r>
       <r>   37.2138    0.0000 </r>
       <r>   39.9869    0.0000 </r>
       <r>   43.3409    0.0000 </r>
       <r>   49.9618    0.0000 </r>
       <r>   50.8560    0.0000 </r>
       <r>   53.8728    0.0000 </r>
       <r>   58.7466    0.0000 </r>
       <r>   64.6085    0.0000 </r>
      </set>
      <set comment="kpoint 24">
       <r>   -2.6521    1.0000 </r>
       <r>    0.2547    1.0000 </r>
       <r>    0.7705    1.0000 </r>
       <r>    1.1965    1.0000 </r>
       <r>    1.2136    1.0000 </r>
       <r>    2.1590    1.0000 </r>
       <r>   17.1115    0.0000 </r>
       <r>   17.8545    0.0000 </r>
       <r>   28.0318    0.0000 </r>
       <r>   28.1723    0.0000 </r>
       <r>   31.2979    0.0000 </r>
       <r>   33.3516    0.0000 </r>
       <r>   33.5714    0.0000 </r>
       <r>   38.6945    0.0000 </r>
       <r>   43.1479    0.0000 </r>
       <r>   46.3702    0.0000 </r>
       <r>   49.0779    0.0000 </r>
       <r>   52.4625    0.0000 </r>
       <r>   56.7945    0.0000 </r>
       <r>   59.7211    0.0000 </r>
      </set>
      <set comment="kpoint 25">
       <r>   -2.3943    1.0000 </r>
       <r>   -0.0978    1.0000 </r>
       <r>    1.1210    1.0000 </r>
       <r>    1.4715    1.0000 </r>
       <r>    1.4715    1.0000 </r>
       <r>    1.8378    1.0000 </r>
       <r>   20.2337    0.0000 </r>
       <r>   20.2337    0.0000 </r>
       <r>   20.8959    0.0000 </r>
       <r>   22.5875    0.0000 </r>
       <r>   25.3432    0.0000 </r>
       <r>   42.3083    0.0000 </r>
       <r>   42.3083    0.0000 </r>
       <r>   43.3841    0.0000 </r>
       <r>   44.7705    0.0000 </r>
       <r>   45.6526    0.0000 </r>
       <r>   47.6160    0.0000 </r>
       <r>   47.6160    0.0000 </r>
       <r>   55.1390    0.0000 </r>
       <r>   63.2080    0.0000 </r>
      </set>
      <set comment="kpoint 26">
       <r>   -1.5546    1.0000 </r>
       <r>   -0.2450    1.0000 </r>
       <r>    1.0732    1.0000 </r>
       <r>    1.5610    1.0000 </r>
       <r>    1.9886    1.0000 </r>
       <r>    2.1536    1.0000 </r>
       <r>   16.7889    0.0000 </r>
       <r>   18.4584    0.0000 </r>
       <r>   19.3370    0.0000 </r>
       <r>   23.0746    0.0000 </r>
       <r>   26.4675    0.0000 </r>
       <r>   41.4339    0.0000 </r>
       <r>   41.6905    0.0000 </r>
       <r>   45.3089    0.0000 </r>
       <r>   47.6026    0.0000 </r>
       <r>   50.0144    0.0000 </r>
       <r>   50.7882    0.0000 </r>
       <r>   50.9598    0.0000 </r>
       <r>   56.7519    0.0000 </r>
       <r>   58.5336    0.0000 </r>
      </set>
      <set comment="kpoint 27">
       <r>   -0.8964    1.0000 </r>
       <r>   -0.2579    1.0000 </r>
       <r>    0.9115    1.0000 </r>
       <r>    1.4949    1.0000 </r>
       <r>    2.1281    1.0000 </r>
       <r>    3.6918    1.0173 </r>
       <r>   12.8340    0.0000 </r>
       <r>   16.3752    0.0000 </r>
       <r>   19.1797    0.0000 </r>
       <r>   23.1760    0.0000 </r>
       <r>   29.9279    0.0000 </r>
       <r>   39.5900    0.0000 </r>
       <r>   40.3226    0.0000 </r>
       <r>   45.8708    0.0000 </r>
       <r>   51.1730    0.0000 </r>
       <r>   51.8305    0.0000 </r>
       <r>   52.4216    0.0000 </r>
       <r>   54.8005    0.0000 </r>
       <r>   57.1214    0.0000 </r>
       <r>   57.4007    0.0000 </r>
      </set>
      <set comment="kpoint 28">
       <r>   -0.5380    1.0000 </r>
       <r>   -0.1533    1.0000 </r>
       <r>    0.7599    1.0000 </r>
       <r>    1.4020    1.0000 </r>
       <r>    2.0919    1.0000 </r>
       <r>    5.9713    0.0000 </r>
       <r>    9.3832    0.0000 </r>
       <r>   14.7995    0.0000 </r>
       <r>   19.7974    0.0000 </r>
       <r>   23.4117    0.0000 </r>
       <r>   34.1788    0.0000 </r>
       <r>   38.1318    0.0000 </r>
       <r>   39.0719    0.0000 </r>
       <r>   46.2653    0.0000 </r>
       <r>   46.5319    0.0000 </r>
       <r>   48.2343    0.0000 </r>
       <r>   56.3158    0.0000 </r>
       <r>   58.9594    0.0000 </r>
       <r>   61.3849    0.0000 </r>
       <r>   62.2295    0.0000 </r>
      </set>
      <set comment="kpoint 29">
       <r>   -0.3588    1.0000 </r>
       <r>    0.0014    1.0000 </r>
       <r>    0.5374    1.0000 </r>
       <r>    1.3246    1.0000 </r>
       <r>    1.8861    1.0000 </r>
       <r>    6.1633    0.0000 </r>
       <r>    9.3005    0.0000 </r>
       <r>   13.8026    0.0000 </r>
       <r>   21.1450    0.0000 </r>
       <r>   23.9838    0.0000 </r>
       <r>   37.1229    0.0000 </r>
       <r>   37.3076    0.0000 </r>
       <r>   39.2826    0.0000 </r>
       <r>   41.8723    0.0000 </r>
       <r>   43.9480    0.0000 </r>
       <r>   47.5916    0.0000 </r>
       <r>   54.8160    0.0000 </r>
       <r>   60.9810    0.0000 </r>
       <r>   62.8592    0.0000 </r>
       <r>   66.4641    0.0000 </r>
      </set>
      <set comment="kpoint 30">
       <r>   -0.5682    1.0000 </r>
       <r>    0.2637    1.0000 </r>
       <r>    0.2727    1.0000 </r>
       <r>    1.2496    1.0000 </r>
       <r>    1.6304    1.0000 </r>
       <r>    4.1488    0.0000 </r>
       <r>   12.3363    0.0000 </r>
       <r>   13.8341    0.0000 </r>
       <r>   23.1150    0.0000 </r>
       <r>   24.9608    0.0000 </r>
       <r>   35.4134    0.0000 </r>
       <r>   36.1981    0.0000 </r>
       <r>   38.0203    0.0000 </r>
       <r>   41.1064    0.0000 </r>
       <r>   44.8847    0.0000 </r>
       <r>   48.1050    0.0000 </r>
       <r>   49.5166    0.0000 </r>
       <r>   59.5277    0.0000 </r>
       <r>   63.6682    0.0000 </r>
       <r>   64.7294    0.0000 </r>
      </set>
      <set comment="kpoint 31">
       <r>   -1.2860    1.0000 </r>
       <r>   -0.4438    1.0000 </r>
       <r>    1.8981    1.0000 </r>
       <r>    1.8981    1.0000 </r>
       <r>    1.9787    1.0000 </r>
       <r>    2.2585    1.0000 </r>
       <r>   15.7560    0.0000 </r>
       <r>   18.1533    0.0000 </r>
       <r>   18.1533    0.0000 </r>
       <r>   21.7946    0.0000 </r>
       <r>   24.3563    0.0000 </r>
       <r>   45.9769    0.0000 </r>
       <r>   46.0181    0.0000 </r>
       <r>   46.0181    0.0000 </r>
       <r>   48.6757    0.0000 </r>
       <r>   49.6588    0.0000 </r>
       <r>   53.0731    0.0000 </r>
       <r>   53.0731    0.0000 </r>
       <r>   58.0857    0.0000 </r>
       <r>   59.0675    0.0000 </r>
      </set>
      <set comment="kpoint 32">
       <r>   -1.0463    1.0000 </r>
       <r>   -0.5167    1.0000 </r>
       <r>    1.6960    1.0000 </r>
       <r>    1.8804    1.0000 </r>
       <r>    2.1399    1.0000 </r>
       <r>    3.9445   -0.0000 </r>
       <r>   13.6055    0.0000 </r>
       <r>   15.4193    0.0000 </r>
       <r>   17.7298    0.0000 </r>
       <r>   22.4229    0.0000 </r>
       <r>   25.7108    0.0000 </r>
       <r>   43.9427    0.0000 </r>
       <r>   45.1969    0.0000 </r>
       <r>   50.3456    0.0000 </r>
       <r>   51.3268    0.0000 </r>
       <r>   52.4893    0.0000 </r>
       <r>   53.9545    0.0000 </r>
       <r>   55.3098    0.0000 </r>
       <r>   57.0684    0.0000 </r>
       <r>   57.0697    0.0000 </r>
      </set>
      <set comment="kpoint 33">
       <r>   -0.7784    1.0000 </r>
       <r>   -0.4421    1.0000 </r>
       <r>    1.3111    1.0000 </r>
       <r>    1.7773    1.0000 </r>
       <r>    2.1372    1.0000 </r>
       <r>    6.2153    0.0000 </r>
       <r>   11.8091    0.0000 </r>
       <r>   12.2021    0.0000 </r>
       <r>   18.1303    0.0000 </r>
       <r>   22.7946    0.0000 </r>
       <r>   29.4024    0.0000 </r>
       <r>   42.1366    0.0000 </r>
       <r>   43.3762    0.0000 </r>
       <r>   47.8111    0.0000 </r>
       <r>   48.9814    0.0000 </r>
       <r>   52.4890    0.0000 </r>
       <r>   56.9526    0.0000 </r>
       <r>   59.1251    0.0000 </r>
       <r>   60.0472    0.0000 </r>
       <r>   60.1117    0.0000 </r>
      </set>
      <set comment="kpoint 34">
       <r>   -0.4668    1.0000 </r>
       <r>   -0.2667    1.0000 </r>
       <r>    0.8550    1.0000 </r>
       <r>    1.6054    1.0000 </r>
       <r>    1.9980    1.0000 </r>
       <r>    8.4827    0.0000 </r>
       <r>    8.7615    0.0000 </r>
       <r>   11.7110    0.0000 </r>
       <r>   19.3110    0.0000 </r>
       <r>   23.2478    0.0000 </r>
       <r>   33.9856    0.0000 </r>
       <r>   40.2181    0.0000 </r>
       <r>   40.8862    0.0000 </r>
       <r>   43.8439    0.0000 </r>
       <r>   45.5929    0.0000 </r>
       <r>   53.2347    0.0000 </r>
       <r>   53.9027    0.0000 </r>
       <r>   61.2282    0.0000 </r>
       <r>   63.0427    0.0000 </r>
       <r>   63.1691    0.0000 </r>
      </set>
      <set comment="kpoint 35">
       <r>   -1.1211    1.0000 </r>
       <r>   -0.6451    1.0000 </r>
       <r>    2.0632    1.0000 </r>
       <r>    2.1866    1.0000 </r>
       <r>    2.1866    1.0000 </r>
       <r>    4.6549    0.0000 </r>
       <r>   11.6353    0.0000 </r>
       <r>   17.0233    0.0000 </r>
       <r>   17.0233    0.0000 </r>
       <r>   21.4196    0.0000 </r>
       <r>   23.9959    0.0000 </r>
       <r>   47.0447    0.0000 </r>
       <r>   50.1768    0.0000 </r>
       <r>   50.1768    0.0000 </r>
       <r>   50.4826    0.0000 </r>
       <r>   54.8472    0.0000 </r>
       <r>   54.8472    0.0000 </r>
       <r>   56.5068    0.0000 </r>
       <r>   56.6877    0.0000 </r>
       <r>   58.6446    0.0000 </r>
      </set>
      <set comment="kpoint 36">
       <r>   -1.0283    1.0000 </r>
       <r>   -0.6165    1.0000 </r>
       <r>    1.9326    1.0000 </r>
       <r>    2.0072    1.0000 </r>
       <r>    2.2011    1.0000 </r>
       <r>    5.7623    0.0000 </r>
       <r>   10.9031    0.0000 </r>
       <r>   14.9167    0.0000 </r>
       <r>   17.1631    0.0000 </r>
       <r>   22.2202    0.0000 </r>
       <r>   25.4874    0.0000 </r>
       <r>   45.4765    0.0000 </r>
       <r>   47.6231    0.0000 </r>
       <r>   50.3527    0.0000 </r>
       <r>   50.9035    0.0000 </r>
       <r>   54.5156    0.0000 </r>
       <r>   55.6074    0.0000 </r>
       <r>   58.0196    0.0000 </r>
       <r>   58.2734    0.0000 </r>
       <r>   59.0899    0.0000 </r>
      </set>
      <set comment="kpoint 37">
       <r>   -3.6594    1.0000 </r>
       <r>    0.2978    1.0000 </r>
       <r>    0.9032    1.0000 </r>
       <r>    1.0822    1.0000 </r>
       <r>    1.3084    1.0000 </r>
       <r>    1.7665    1.0000 </r>
       <r>   19.9896    0.0000 </r>
       <r>   20.6192    0.0000 </r>
       <r>   26.9604    0.0000 </r>
       <r>   27.4612    0.0000 </r>
       <r>   29.7611    0.0000 </r>
       <r>   34.5901    0.0000 </r>
       <r>   35.3468    0.0000 </r>
       <r>   39.8719    0.0000 </r>
       <r>   41.0229    0.0000 </r>
       <r>   44.1732    0.0000 </r>
       <r>   44.9969    0.0000 </r>
       <r>   48.3596    0.0000 </r>
       <r>   54.2988    0.0000 </r>
       <r>   62.0292    0.0000 </r>
      </set>
      <set comment="kpoint 38">
       <r>   -2.4373    1.0000 </r>
       <r>    0.1941    1.0000 </r>
       <r>    0.7369    1.0000 </r>
       <r>    1.1273    1.0000 </r>
       <r>    1.5116    1.0000 </r>
       <r>    2.1269    1.0000 </r>
       <r>   15.7256    0.0000 </r>
       <r>   19.6474    0.0000 </r>
       <r>   24.6710    0.0000 </r>
       <r>   27.5839    0.0000 </r>
       <r>   31.3071    0.0000 </r>
       <r>   33.2977    0.0000 </r>
       <r>   36.1764    0.0000 </r>
       <r>   40.4627    0.0000 </r>
       <r>   42.2364    0.0000 </r>
       <r>   48.3966    0.0000 </r>
       <r>   48.8778    0.0000 </r>
       <r>   53.1743    0.0000 </r>
       <r>   56.3007    0.0000 </r>
       <r>   59.9692    0.0000 </r>
      </set>
      <set comment="kpoint 39">
       <r>   -1.3140    1.0000 </r>
       <r>    0.3531    1.0000 </r>
       <r>    0.5731    1.0000 </r>
       <r>    1.0382    1.0000 </r>
       <r>    1.8476    1.0000 </r>
       <r>    2.8567    1.0000 </r>
       <r>   11.6643    0.0000 </r>
       <r>   19.4893    0.0000 </r>
       <r>   22.6126    0.0000 </r>
       <r>   27.0243    0.0000 </r>
       <r>   31.3689    0.0000 </r>
       <r>   34.9279    0.0000 </r>
       <r>   36.8610    0.0000 </r>
       <r>   40.2671    0.0000 </r>
       <r>   44.8174    0.0000 </r>
       <r>   50.0857    0.0000 </r>
       <r>   52.9929    0.0000 </r>
       <r>   54.7828    0.0000 </r>
       <r>   58.9757    0.0000 </r>
       <r>   60.4344    0.0000 </r>
      </set>
      <set comment="kpoint 40">
       <r>   -0.9073    1.0000 </r>
       <r>    0.3881    1.0000 </r>
       <r>    0.8552    1.0000 </r>
       <r>    0.9698    1.0000 </r>
       <r>    2.0305    1.0000 </r>
       <r>    4.3000    0.0000 </r>
       <r>    8.4116    0.0000 </r>
       <r>   19.8983    0.0000 </r>
       <r>   21.0520    0.0000 </r>
       <r>   26.6620    0.0000 </r>
       <r>   30.8938    0.0000 </r>
       <r>   35.6006    0.0000 </r>
       <r>   38.7390    0.0000 </r>
       <r>   41.3205    0.0000 </r>
       <r>   45.5831    0.0000 </r>
       <r>   48.3330    0.0000 </r>
       <r>   53.9666    0.0000 </r>
       <r>   57.1763    0.0000 </r>
       <r>   60.8264    0.0000 </r>
       <r>   62.8036    0.0000 </r>
      </set>
      <set comment="kpoint 41">
       <r>   -2.0939    1.0000 </r>
       <r>   -0.0429    1.0000 </r>
       <r>    0.7918    1.0000 </r>
       <r>    1.4716    1.0000 </r>
       <r>    1.5670    1.0000 </r>
       <r>    2.1199    1.0000 </r>
       <r>   17.6883    0.0000 </r>
       <r>   18.2419    0.0000 </r>
       <r>   21.3760    0.0000 </r>
       <r>   25.7092    0.0000 </r>
       <r>   27.7891    0.0000 </r>
       <r>   37.0977    0.0000 </r>
       <r>   40.3520    0.0000 </r>
       <r>   43.9519    0.0000 </r>
       <r>   44.2428    0.0000 </r>
       <r>   47.3045    0.0000 </r>
       <r>   49.8882    0.0000 </r>
       <r>   51.3216    0.0000 </r>
       <r>   55.6629    0.0000 </r>
       <r>   59.9558    0.0000 </r>
      </set>
      <set comment="kpoint 42">
       <r>   -1.1081    1.0000 </r>
       <r>   -0.0836    1.0000 </r>
       <r>    0.6000    1.0000 </r>
       <r>    1.4310    1.0000 </r>
       <r>    1.8855    1.0000 </r>
       <r>    3.0309    1.0000 </r>
       <r>   13.7507    0.0000 </r>
       <r>   17.6557    0.0000 </r>
       <r>   19.1351    0.0000 </r>
       <r>   26.1314    0.0000 </r>
       <r>   30.4171    0.0000 </r>
       <r>   35.5074    0.0000 </r>
       <r>   40.7938    0.0000 </r>
       <r>   44.0702    0.0000 </r>
       <r>   47.0064    0.0000 </r>
       <r>   50.6395    0.0000 </r>
       <r>   51.5489    0.0000 </r>
       <r>   54.3323    0.0000 </r>
       <r>   57.1584    0.0000 </r>
       <r>   59.8548    0.0000 </r>
      </set>
      <set comment="kpoint 43">
       <r>   -0.5903    1.0000 </r>
       <r>    0.0065    1.0000 </r>
       <r>    0.5506    1.0000 </r>
       <r>    1.3137    1.0000 </r>
       <r>    2.0510    1.0000 </r>
       <r>    4.8060    0.0000 </r>
       <r>   10.0759    0.0000 </r>
       <r>   17.2852    0.0000 </r>
       <r>   18.0081    0.0000 </r>
       <r>   26.2576    0.0000 </r>
       <r>   33.0250    0.0000 </r>
       <r>   35.6136    0.0000 </r>
       <r>   40.3038    0.0000 </r>
       <r>   43.9136    0.0000 </r>
       <r>   45.8438    0.0000 </r>
       <r>   50.3719    0.0000 </r>
       <r>   53.5195    0.0000 </r>
       <r>   58.3495    0.0000 </r>
       <r>   58.6748    0.0000 </r>
       <r>   63.4765    0.0000 </r>
      </set>
      <set comment="kpoint 44">
       <r>   -0.4432    1.0000 </r>
       <r>    0.0463    1.0000 </r>
       <r>    0.5754    1.0000 </r>
       <r>    1.2367    1.0000 </r>
       <r>    2.0072    1.0000 </r>
       <r>    6.2046    0.0000 </r>
       <r>    8.2559    0.0000 </r>
       <r>   16.0719    0.0000 </r>
       <r>   18.8877    0.0000 </r>
       <r>   26.7754    0.0000 </r>
       <r>   32.6065    0.0000 </r>
       <r>   39.3586    0.0000 </r>
       <r>   39.6790    0.0000 </r>
       <r>   41.1610    0.0000 </r>
       <r>   44.4227    0.0000 </r>
       <r>   48.7235    0.0000 </r>
       <r>   55.3400    0.0000 </r>
       <r>   59.4228    0.0000 </r>
       <r>   62.3403    0.0000 </r>
       <r>   63.8976    0.0000 </r>
      </set>
      <set comment="kpoint 45">
       <r>   -0.5764    1.0000 </r>
       <r>    0.1819    1.0000 </r>
       <r>    0.3304    1.0000 </r>
       <r>    1.2763    1.0000 </r>
       <r>    1.7967    1.0000 </r>
       <r>    4.2743    0.0000 </r>
       <r>   11.2306    0.0000 </r>
       <r>   15.4227    0.0000 </r>
       <r>   20.3638    0.0000 </r>
       <r>   27.8092    0.0000 </r>
       <r>   31.8240    0.0000 </r>
       <r>   36.5247    0.0000 </r>
       <r>   39.0445    0.0000 </r>
       <r>   44.0873    0.0000 </r>
       <r>   45.0024    0.0000 </r>
       <r>   46.0681    0.0000 </r>
       <r>   52.6643    0.0000 </r>
       <r>   59.0655    0.0000 </r>
       <r>   61.0588    0.0000 </r>
       <r>   63.9209    0.0000 </r>
      </set>
      <set comment="kpoint 46">
       <r>   -1.3283    1.0000 </r>
       <r>    0.1016    1.0000 </r>
       <r>    0.4998    1.0000 </r>
       <r>    1.3456    1.0000 </r>
       <r>    1.4987    1.0000 </r>
       <r>    2.8951    1.0000 </r>
       <r>   14.7711    0.0000 </r>
       <r>   15.7206    0.0000 </r>
       <r>   22.3326    0.0000 </r>
       <r>   29.2759    0.0000 </r>
       <r>   30.3620    0.0000 </r>
       <r>   34.0284    0.0000 </r>
       <r>   37.8598    0.0000 </r>
       <r>   42.0234    0.0000 </r>
       <r>   45.7711    0.0000 </r>
       <r>   48.1137    0.0000 </r>
       <r>   50.6202    0.0000 </r>
       <r>   54.3267    0.0000 </r>
       <r>   57.6476    0.0000 </r>
       <r>   63.8059    0.0000 </r>
      </set>
      <set comment="kpoint 47">
       <r>   -1.0578    1.0000 </r>
       <r>   -0.3529    1.0000 </r>
       <r>    1.1103    1.0000 </r>
       <r>    1.8785    1.0000 </r>
       <r>    1.8959    1.0000 </r>
       <r>    3.2229    1.0000 </r>
       <r>   15.9539    0.0000 </r>
       <r>   16.0064    0.0000 </r>
       <r>   16.6064    0.0000 </r>
       <r>   24.5435    0.0000 </r>
       <r>   26.7257    0.0000 </r>
       <r>   39.7011    0.0000 </r>
       <r>   45.5607    0.0000 </r>
       <r>   47.2503    0.0000 </r>
       <r>   48.5862    0.0000 </r>
       <r>   51.5264    0.0000 </r>
       <r>   51.7593    0.0000 </r>
       <r>   55.3743    0.0000 </r>
       <r>   55.7206    0.0000 </r>
       <r>   60.0715    0.0000 </r>
      </set>
      <set comment="kpoint 48">
       <r>   -0.6984    1.0000 </r>
       <r>   -0.3173    1.0000 </r>
       <r>    0.9286    1.0000 </r>
       <r>    1.7072    1.0000 </r>
       <r>    2.0987    1.0000 </r>
       <r>    5.1701    0.0000 </r>
       <r>   12.4470    0.0000 </r>
       <r>   14.1853    0.0000 </r>
       <r>   16.4046    0.0000 </r>
       <r>   25.3263    0.0000 </r>
       <r>   29.7656    0.0000 </r>
       <r>   37.9767    0.0000 </r>
       <r>   45.0247    0.0000 </r>
       <r>   46.5991    0.0000 </r>
       <r>   48.9882    0.0000 </r>
       <r>   52.2532    0.0000 </r>
       <r>   53.1621    0.0000 </r>
       <r>   57.0847    0.0000 </r>
       <r>   59.9170    0.0000 </r>
       <r>   61.2014    0.0000 </r>
      </set>
      <set comment="kpoint 49">
       <r>   -0.4063    1.0000 </r>
       <r>   -0.2002    1.0000 </r>
       <r>    0.6747    1.0000 </r>
       <r>    1.5357    1.0000 </r>
       <r>    2.0748    1.0000 </r>
       <r>    7.7050    0.0000 </r>
       <r>    9.1941    0.0000 </r>
       <r>   12.8832    0.0000 </r>
       <r>   17.1622    0.0000 </r>
       <r>   25.8563    0.0000 </r>
       <r>   34.0189    0.0000 </r>
       <r>   36.5199    0.0000 </r>
       <r>   41.9076    0.0000 </r>
       <r>   43.6972    0.0000 </r>
       <r>   49.0877    0.0000 </r>
       <r>   50.4169    0.0000 </r>
       <r>   56.7347    0.0000 </r>
       <r>   57.7806    0.0000 </r>
       <r>   60.9809    0.0000 </r>
       <r>   63.0795    0.0000 </r>
      </set>
      <set comment="kpoint 50">
       <r>   -0.1694    1.0000 </r>
       <r>   -0.0904    1.0000 </r>
       <r>    0.3565    1.0000 </r>
       <r>    1.4240    1.0000 </r>
       <r>    1.9110    1.0000 </r>
       <r>    6.3328    0.0000 </r>
       <r>   10.4971    0.0000 </r>
       <r>   12.6491    0.0000 </r>
       <r>   18.5186    0.0000 </r>
       <r>   26.7395    0.0000 </r>
       <r>   34.4784    0.0000 </r>
       <r>   37.5921    0.0000 </r>
       <r>   39.9920    0.0000 </r>
       <r>   41.8556    0.0000 </r>
       <r>   46.0956    0.0000 </r>
       <r>   51.1882    0.0000 </r>
       <r>   51.3123    0.0000 </r>
       <r>   61.8302    0.0000 </r>
       <r>   62.1586    0.0000 </r>
       <r>   65.8217    0.0000 </r>
      </set>
      <set comment="kpoint 51">
       <r>   -0.9375    1.0000 </r>
       <r>   -0.5346    1.0000 </r>
       <r>    1.5838    1.0000 </r>
       <r>    1.9490    1.0000 </r>
       <r>    2.1863    1.0000 </r>
       <r>    5.5359    0.0000 </r>
       <r>   11.8488    0.0000 </r>
       <r>   14.9917    0.0000 </r>
       <r>   15.6068    0.0000 </r>
       <r>   23.9804    0.0000 </r>
       <r>   26.2751    0.0000 </r>
       <r>   42.3196    0.0000 </r>
       <r>   47.9163    0.0000 </r>
       <r>   49.2837    0.0000 </r>
       <r>   50.3145    0.0000 </r>
       <r>   54.4922    0.0000 </r>
       <r>   55.3941    0.0000 </r>
       <r>   56.3065    0.0000 </r>
       <r>   58.3631    0.0000 </r>
       <r>   59.6081    0.0000 </r>
      </set>
      <set comment="kpoint 52">
       <r>   -0.7130    1.0000 </r>
       <r>   -0.3998    1.0000 </r>
       <r>    1.1695    1.0000 </r>
       <r>    1.7693    1.0000 </r>
       <r>    2.1839    1.0000 </r>
       <r>    7.2571    0.0000 </r>
       <r>   11.1938    0.0000 </r>
       <r>   12.0320    0.0000 </r>
       <r>   15.9498    0.0000 </r>
       <r>   25.0692    0.0000 </r>
       <r>   29.5518    0.0000 </r>
       <r>   39.8350    0.0000 </r>
       <r>   44.0391    0.0000 </r>
       <r>   47.2868    0.0000 </r>
       <r>   51.3156    0.0000 </r>
       <r>   54.9129    0.0000 </r>
       <r>   55.3878    0.0000 </r>
       <r>   57.6737    0.0000 </r>
       <r>   58.3506    0.0000 </r>
       <r>   62.1997    0.0000 </r>
      </set>
      <set comment="kpoint 53">
       <r>   -0.5176    1.0000 </r>
       <r>   -0.0802    1.0000 </r>
       <r>    0.3930    1.0000 </r>
       <r>    1.5917    1.0000 </r>
       <r>    1.8939    1.0000 </r>
       <r>    4.5717    0.0000 </r>
       <r>   13.0404    0.0000 </r>
       <r>   14.2703    0.0000 </r>
       <r>   17.0132    0.0000 </r>
       <r>   29.1192    0.0000 </r>
       <r>   30.2952    0.0000 </r>
       <r>   34.4915    0.0000 </r>
       <r>   43.7213    0.0000 </r>
       <r>   45.4406    0.0000 </r>
       <r>   47.3118    0.0000 </r>
       <r>   49.2060    0.0000 </r>
       <r>   50.4793    0.0000 </r>
       <r>   59.9140    0.0000 </r>
       <r>   61.2937    0.0000 </r>
       <r>   61.7692    0.0000 </r>
      </set>
      <set comment="kpoint 54">
       <r>   -0.2671    1.0000 </r>
       <r>   -0.0313    1.0000 </r>
       <r>    0.3253    1.0000 </r>
       <r>    1.4675    1.0000 </r>
       <r>    2.0630    1.0000 </r>
       <r>    6.8368    0.0000 </r>
       <r>    9.9536    0.0000 </r>
       <r>   14.3228    0.0000 </r>
       <r>   15.4046    0.0000 </r>
       <r>   29.5444    0.0000 </r>
       <r>   31.7507    0.0000 </r>
       <r>   35.6677    0.0000 </r>
       <r>   40.5455    0.0000 </r>
       <r>   44.8487    0.0000 </r>
       <r>   48.2234    0.0000 </r>
       <r>   51.2252    0.0000 </r>
       <r>   54.2826    0.0000 </r>
       <r>   57.3914    0.0000 </r>
       <r>   61.7689    0.0000 </r>
       <r>   63.1566    0.0000 </r>
      </set>
      <set comment="kpoint 55">
       <r>   -0.5259    1.0000 </r>
       <r>   -0.1961    1.0000 </r>
       <r>    0.7081    1.0000 </r>
       <r>    1.6331    1.0000 </r>
       <r>    2.1854    1.0000 </r>
       <r>    7.2861    0.0000 </r>
       <r>   12.0850    0.0000 </r>
       <r>   12.5478    0.0000 </r>
       <r>   13.5697    0.0000 </r>
       <r>   28.4856    0.0000 </r>
       <r>   30.6617    0.0000 </r>
       <r>   36.1505    0.0000 </r>
       <r>   41.6565    0.0000 </r>
       <r>   49.9081    0.0000 </r>
       <r>   50.1595    0.0000 </r>
       <r>   53.5363    0.0000 </r>
       <r>   54.9841    0.0000 </r>
       <r>   55.9449    0.0000 </r>
       <r>   59.1552    0.0000 </r>
       <r>   60.2324    0.0000 </r>
      </set>
      <set comment="kpoint 56">
       <r>   -0.3681    1.0000 </r>
       <r>    0.0275    1.0000 </r>
       <r>    0.3811    1.0000 </r>
       <r>    1.5027    1.0000 </r>
       <r>    2.1840    1.0000 </r>
       <r>    9.4153    0.0000 </r>
       <r>    9.4534    0.0000 </r>
       <r>   12.0711    0.0000 </r>
       <r>   13.9817    0.0000 </r>
       <r>   29.8093    0.0000 </r>
       <r>   33.8137    0.0000 </r>
       <r>   34.0743    0.0000 </r>
       <r>   38.5474    0.0000 </r>
       <r>   48.4863    0.0000 </r>
       <r>   51.5383    0.0000 </r>
       <r>   53.9210    0.0000 </r>
       <r>   54.2624    0.0000 </r>
       <r>   56.8029    0.0000 </r>
       <r>   58.4567    0.0000 </r>
       <r>   60.1968    0.0000 </r>
      </set>
     </set>
    </set>
   </array>
  </eigenvalues>
  <separator name="orbital magnetization" >
   <v name="MAGDIPOLOUT">      0.00000000      0.00000000      0.00000000</v>
  </separator>
  <dos>
   <i name="efermi">      3.70116254 </i>
   <total>
    <array>
     <dimension dim="1">gridpoints</dimension>
     <dimension dim="2">spin</dimension>
     <field>energy</field>
     <field>total</field>
     <field>integrated</field>
     <set>
      <set comment="spin 1">
       <r>   -20.0000     0.0000     0.0000 </r>
       <r>   -19.9920     0.0000     0.0000 </r>
       <r>   -19.9840     0.0000     0.0000 </r>
       <r>   -19.9760     0.0000     0.0000 </r>
       <r>   -19.9680     0.0000     0.0000 </r>
       <r>   -19.9600     0.0000     0.0000 </r>
       <r>   -19.9520     0.0000     0.0000 </r>
       <r>   -19.9440     0.0000     0.0000 </r>
       <r>   -19.9360     0.0000     0.0000 </r>
       <r>   -19.9280     0.0000     0.0000 </r>
       <r>   -19.9200     0.0000     0.0000 </r>
       <r>   -19.9120     0.0000     0.0000 </r>
       <r>   -19.9040     0.0000     0.0000 </r>
       <r>   -19.8960     0.0000     0.0000 </r>
       <r>   -19.8880     0.0000     0.0000 </r>
       <r>   -19.8800     0.0000     0.0000 </r>
       <r>   -19.8720     0.0000     0.0000 </r>
       <r>   -19.8640     0.0000     0.0000 </r>
       <r>   -19.8560     0.0000     0.0000 </r>
       <r>   -19.8480     0.0000     0.0000 </r>
       <r>   -19.8400     0.0000     0.0000 </r>
       <r>   -19.8320     0.0000     0.0000 </r>
       <r>   -19.8240     0.0000     0.0000 </r>
       <r>   -19.8160     0.0000     0.0000 </r>
       <r>   -19.8080     0.0000     0.0000 </r>
       <r>   -19.8000     0.0000     0.0000 </r>
       <r>   -19.7920     0.0000     0.0000 </r>
       <r>   -19.7840     0.0000     0.0000 </r>
       <r>   -19.7760     0.0000     0.0000 </r>
       <r>   -19.7680     0.0000     0.0000 </r>
       <r>   -19.7600     0.0000     0.0000 </r>
       <r>   -19.7520     0.0000     0.0000 </r>
       <r>   -19.7439     0.0000     0.0000 </r>
       <r>   -19.7359     0.0000     0.0000 </r>
       <r>   -19.7279     0.0000     0.0000 </r>
       <r>   -19.7199     0.0000     0.0000 </r>
       <r>   -19.7119     0.0000     0.0000 </r>
       <r>   -19.7039     0.0000     0.0000 </r>
       <r>   -19.6959     0.0000     0.0000 </r>
       <r>   -19.6879     0.0000     0.0000 </r>
       <r>   -19.6799     0.0000     0.0000 </r>
       <r>   -19.6719     0.0000     0.0000 </r>
       <r>   -19.6639     0.0000     0.0000 </r>
       <r>   -19.6559     0.0000     0.0000 </r>
       <r>   -19.6479     0.0000     0.0000 </r>
       <r>   -19.6399     0.0000     0.0000 </r>
       <r>   -19.6319     0.0000     0.0000 </r>
       <r>   -19.6239     0.0000     0.0000 </r>
       <r>   -19.6159     0.0000     0.0000 </r>
       <r>   -19.6079     0.0000     0.0000 </r>
       <r>   -19.5999     0.0000     0.0000 </r>
       <r>   -19.5919     0.0000     0.0000 </r>
       <r>   -19.5839     0.0000     0.0000 </r>
       <r>   -19.5759     0.0000     0.0000 </r>
       <r>   -19.5679     0.0000     0.0000 </r>
       <r>   -19.5599     0.0000     0.0000 </r>
       <r>   -19.5519     0.0000     0.0000 </r>
       <r>   -19.5439     0.0000     0.0000 </r>
       <r>   -19.5359     0.0000     0.0000 </r>
       <r>   -19.5279     0.0000     0.0000 </r>
       <r>   -19.5199     0.0000     0.0000 </r>
       <r>   -19.5119     0.0000     0.0000 </r>
       <r>   -19.5039     0.0000     0.0000 </r>
       <r>   -19.4959     0.0000     0.0000 </r>
       <r>   -19.4879     0.0000     0.0000 </r>
       <r>   -19.4799     0.0000     0.0000 </r>
       <r>   -19.4719     0.0000     0.0000 </r>
       <r>   -19.4639     0.0000     0.0000 </r>
       <r>   -19.4559     0.0000     0.0000 </r>
       <r>   -19.4479     0.0000     0.0000 </r>
       <r>   -19.4399     0.0000     0.0000 </r>
       <r>   -19.4319     0.0000     0.0000 </r>
       <r>   -19.4239     0.0000     0.0000 </r>
       <r>   -19.4159     0.0000     0.0000 </r>
       <r>   -19.4079     0.0000     0.0000 </r>
       <r>   -19.3999     0.0000     0.0000 </r>
       <r>   -19.3919     0.0000     0.0000 </r>
       <r>   -19.3839     0.0000     0.0000 </r>
       <r>   -19.3759     0.0000     0.0000 </r>
       <r>   -19.3679     0.0000     0.0000 </r>
       <r>   -19.3599     0.0000     0.0000 </r>
       <r>   -19.3519     0.0000     0.0000 </r>
       <r>   -19.3439     0.0000     0.0000 </r>
       <r>   -19.3359     0.0000     0.0000 </r>
       <r>   -19.3279     0.0000     0.0000 </r>
       <r>   -19.3199     0.0000     0.0000 </r>
       <r>   -19.3119     0.0000     0.0000 </r>
       <r>   -19.3039     0.0000     0.0000 </r>
       <r>   -19.2959     0.0000     0.0000 </r>
       <r>   -19.2879     0.0000     0.0000 </r>
       <r>   -19.2799     0.0000     0.0000 </r>
       <r>   -19.2719     0.0000     0.0000 </r>
       <r>   -19.2639     0.0000     0.0000 </r>
       <r>   -19.2559     0.0000     0.0000 </r>
       <r>   -19.2478     0.0000     0.0000 </r>
       <r>   -19.2398     0.0000     0.0000 </r>
       <r>   -19.2318     0.0000     0.0000 </r>
       <r>   -19.2238     0.0000     0.0000 </r>
       <r>   -19.2158     0.0000     0.0000 </r>
       <r>   -19.2078     0.0000     0.0000 </r>
       <r>   -19.1998     0.0000     0.0000 </r>
       <r>   -19.1918     0.0000     0.0000 </r>
       <r>   -19.1838     0.0000     0.0000 </r>
       <r>   -19.1758     0.0000     0.0000 </r>
       <r>   -19.1678     0.0000     0.0000 </r>
       <r>   -19.1598     0.0000     0.0000 </r>
       <r>   -19.1518     0.0000     0.0000 </r>
       <r>   -19.1438     0.0000     0.0000 </r>
       <r>   -19.1358     0.0000     0.0000 </r>
       <r>   -19.1278     0.0000     0.0000 </r>
       <r>   -19.1198     0.0000     0.0000 </r>
       <r>   -19.1118     0.0000     0.0000 </r>
       <r>   -19.1038     0.0000     0.0000 </r>
       <r>   -19.0958     0.0000     0.0000 </r>
       <r>   -19.0878     0.0000     0.0000 </r>
       <r>   -19.0798     0.0000     0.0000 </r>
       <r>   -19.0718     0.0000     0.0000 </r>
       <r>   -19.0638     0.0000     0.0000 </r>
       <r>   -19.0558     0.0000     0.0000 </r>
       <r>   -19.0478     0.0000     0.0000 </r>
       <r>   -19.0398     0.0000     0.0000 </r>
       <r>   -19.0318     0.0000     0.0000 </r>
       <r>   -19.0238     0.0000     0.0000 </r>
       <r>   -19.0158     0.0000     0.0000 </r>
       <r>   -19.0078     0.0000     0.0000 </r>
       <r>   -18.9998     0.0000     0.0000 </r>
       <r>   -18.9918     0.0000     0.0000 </r>
       <r>   -18.9838     0.0000     0.0000 </r>
       <r>   -18.9758     0.0000     0.0000 </r>
       <r>   -18.9678     0.0000     0.0000 </r>
       <r>   -18.9598     0.0000     0.0000 </r>
       <r>   -18.9518     0.0000     0.0000 </r>
       <r>   -18.9438     0.0000     0.0000 </r>
       <r>   -18.9358     0.0000     0.0000 </r>
       <r>   -18.9278     0.0000     0.0000 </r>
       <r>   -18.9198     0.0000     0.0000 </r>
       <r>   -18.9118     0.0000     0.0000 </r>
       <r>   -18.9038     0.0000     0.0000 </r>
       <r>   -18.8958     0.0000     0.0000 </r>
       <r>   -18.8878     0.0000     0.0000 </r>
       <r>   -18.8798     0.0000     0.0000 </r>
       <r>   -18.8718     0.0000     0.0000 </r>
       <r>   -18.8638     0.0000     0.0000 </r>
       <r>   -18.8558     0.0000     0.0000 </r>
       <r>   -18.8478     0.0000     0.0000 </r>
       <r>   -18.8398     0.0000     0.0000 </r>
       <r>   -18.8318     0.0000     0.0000 </r>
       <r>   -18.8238     0.0000     0.0000 </r>
       <r>   -18.8158     0.0000     0.0000 </r>
       <r>   -18.8078     0.0000     0.0000 </r>
       <r>   -18.7998     0.0000     0.0000 </r>
       <r>   -18.7918     0.0000     0.0000 </r>
       <r>   -18.7838     0.0000     0.0000 </r>
       <r>   -18.7758     0.0000     0.0000 </r>
       <r>   -18.7678     0.0000     0.0000 </r>
       <r>   -18.7598     0.0000     0.0000 </r>
       <r>   -18.7518     0.0000     0.0000 </r>
       <r>   -18.7437     0.0000     0.0000 </r>
       <r>   -18.7357     0.0000     0.0000 </r>
       <r>   -18.7277     0.0000     0.0000 </r>
       <r>   -18.7197     0.0000     0.0000 </r>
       <r>   -18.7117     0.0000     0.0000 </r>
       <r>   -18.7037     0.0000     0.0000 </r>
       <r>   -18.6957     0.0000     0.0000 </r>
       <r>   -18.6877     0.0000     0.0000 </r>
       <r>   -18.6797     0.0000     0.0000 </r>
       <r>   -18.6717     0.0000     0.0000 </r>
       <r>   -18.6637     0.0000     0.0000 </r>
       <r>   -18.6557     0.0000     0.0000 </r>
       <r>   -18.6477     0.0000     0.0000 </r>
       <r>   -18.6397     0.0000     0.0000 </r>
       <r>   -18.6317     0.0000     0.0000 </r>
       <r>   -18.6237     0.0000     0.0000 </r>
       <r>   -18.6157     0.0000     0.0000 </r>
       <r>   -18.6077     0.0000     0.0000 </r>
       <r>   -18.5997     0.0000     0.0000 </r>
       <r>   -18.5917     0.0000     0.0000 </r>
       <r>   -18.5837     0.0000     0.0000 </r>
       <r>   -18.5757     0.0000     0.0000 </r>
       <r>   -18.5677     0.0000     0.0000 </r>
       <r>   -18.5597     0.0000     0.0000 </r>
       <r>   -18.5517     0.0000     0.0000 </r>
       <r>   -18.5437     0.0000     0.0000 </r>
       <r>   -18.5357     0.0000     0.0000 </r>
       <r>   -18.5277     0.0000     0.0000 </r>
       <r>   -18.5197     0.0000     0.0000 </r>
       <r>   -18.5117     0.0000     0.0000 </r>
       <r>   -18.5037     0.0000     0.0000 </r>
       <r>   -18.4957     0.0000     0.0000 </r>
       <r>   -18.4877     0.0000     0.0000 </r>
       <r>   -18.4797     0.0000     0.0000 </r>
       <r>   -18.4717     0.0000     0.0000 </r>
       <r>   -18.4637     0.0000     0.0000 </r>
       <r>   -18.4557     0.0000     0.0000 </r>
       <r>   -18.4477     0.0000     0.0000 </r>
       <r>   -18.4397     0.0000     0.0000 </r>
       <r>   -18.4317     0.0000     0.0000 </r>
       <r>   -18.4237     0.0000     0.0000 </r>
       <r>   -18.4157     0.0000     0.0000 </r>
       <r>   -18.4077     0.0000     0.0000 </r>
       <r>   -18.3997     0.0000     0.0000 </r>
       <r>   -18.3917     0.0000     0.0000 </r>
       <r>   -18.3837     0.0000     0.0000 </r>
       <r>   -18.3757     0.0000     0.0000 </r>
       <r>   -18.3677     0.0000     0.0000 </r>
       <r>   -18.3597     0.0000     0.0000 </r>
       <r>   -18.3517     0.0000     0.0000 </r>
       <r>   -18.3437     0.0000     0.0000 </r>
       <r>   -18.3357     0.0000     0.0000 </r>
       <r>   -18.3277     0.0000     0.0000 </r>
       <r>   -18.3197     0.0000     0.0000 </r>
       <r>   -18.3117     0.0000     0.0000 </r>
       <r>   -18.3037     0.0000     0.0000 </r>
       <r>   -18.2957     0.0000     0.0000 </r>
       <r>   -18.2877     0.0000     0.0000 </r>
       <r>   -18.2797     0.0000     0.0000 </r>
       <r>   -18.2717     0.0000     0.0000 </r>
       <r>   -18.2637     0.0000     0.0000 </r>
       <r>   -18.2557     0.0000     0.0000 </r>
       <r>   -18.2476     0.0000     0.0000 </r>
       <r>   -18.2396     0.0000     0.0000 </r>
       <r>   -18.2316     0.0000     0.0000 </r>
       <r>   -18.2236     0.0000     0.0000 </r>
       <r>   -18.2156     0.0000     0.0000 </r>
       <r>   -18.2076     0.0000     0.0000 </r>
       <r>   -18.1996     0.0000     0.0000 </r>
       <r>   -18.1916     0.0000     0.0000 </r>
       <r>   -18.1836     0.0000     0.0000 </r>
       <r>   -18.1756     0.0000     0.0000 </r>
       <r>   -18.1676     0.0000     0.0000 </r>
       <r>   -18.1596     0.0000     0.0000 </r>
       <r>   -18.1516     0.0000     0.0000 </r>
       <r>   -18.1436     0.0000     0.0000 </r>
       <r>   -18.1356     0.0000     0.0000 </r>
       <r>   -18.1276     0.0000     0.0000 </r>
       <r>   -18.1196     0.0000     0.0000 </r>
       <r>   -18.1116     0.0000     0.0000 </r>
       <r>   -18.1036     0.0000     0.0000 </r>
       <r>   -18.0956     0.0000     0.0000 </r>
       <r>   -18.0876     0.0000     0.0000 </r>
       <r>   -18.0796     0.0000     0.0000 </r>
[...]
       <r>    16.8714     0.0000    14.9391 </r>
       <r>    16.8794     0.0000    14.9391 </r>
       <r>    16.8874     0.0000    14.9391 </r>
       <r>    16.8954     0.0000    14.9391 </r>
       <r>    16.9034     0.0000    14.9391 </r>
       <r>    16.9114     0.0000    14.9391 </r>
       <r>    16.9194     0.0000    14.9391 </r>
       <r>    16.9274    -0.0000    14.9391 </r>
       <r>    16.9354    -0.0000    14.9391 </r>
       <r>    16.9434    -0.0000    14.9391 </r>
       <r>    16.9514    -0.0000    14.9391 </r>
       <r>    16.9594    -0.0000    14.9391 </r>
       <r>    16.9674    -0.0000    14.9391 </r>
       <r>    16.9754    -0.0000    14.9391 </r>
       <r>    16.9834    -0.0005    14.9391 </r>
       <r>    16.9914    -0.0190    14.9390 </r>
       <r>    16.9994    -0.1313    14.9379 </r>
       <r>    17.0074     0.5047    14.9420 </r>
       <r>    17.0154     2.7516    14.9640 </r>
       <r>    17.0234     2.6654    14.9853 </r>
       <r>    17.0314     1.0326    14.9936 </r>
       <r>    17.0394     0.0111    14.9937 </r>
       <r>    17.0474    -0.0502    14.9933 </r>
       <r>    17.0554    -0.0039    14.9932 </r>
       <r>    17.0634    -0.0001    14.9932 </r>
       <r>    17.0714    -0.0000    14.9932 </r>
       <r>    17.0794    -0.0001    14.9932 </r>
       <r>    17.0874    -0.0038    14.9932 </r>
       <r>    17.0954    -0.0471    14.9928 </r>
       <r>    17.1034     0.0680    14.9934 </r>
       <r>    17.1114     1.0918    15.0021 </r>
       <r>    17.1194     1.1168    15.0110 </r>
       <r>    17.1274     0.0807    15.0117 </r>
       <r>    17.1354    -0.0540    15.0113 </r>
       <r>    17.1434    -0.1245    15.0103 </r>
       <r>    17.1514    -0.2349    15.0084 </r>
       <r>    17.1594     3.3358    15.0351 </r>
       <r>    17.1674     6.8671    15.0900 </r>
       <r>    17.1754     1.8125    15.1045 </r>
       <r>    17.1834    -0.3243    15.1019 </r>
       <r>    17.1914    -0.0621    15.1014 </r>
       <r>    17.1994    -0.0301    15.1012 </r>
       <r>    17.2074    -0.1296    15.1002 </r>
       <r>    17.2154     0.8403    15.1069 </r>
       <r>    17.2234     2.7822    15.1291 </r>
       <r>    17.2314     1.1973    15.1387 </r>
       <r>    17.2394    -0.1101    15.1378 </r>
       <r>    17.2474    -0.0421    15.1375 </r>
       <r>    17.2555    -0.0027    15.1375 </r>
       <r>    17.2635    -0.0390    15.1372 </r>
       <r>    17.2715    -0.2557    15.1351 </r>
       <r>    17.2795     1.1421    15.1443 </r>
       <r>    17.2875     5.3657    15.1872 </r>
       <r>    17.2955     3.0542    15.2116 </r>
       <r>    17.3035    -0.1325    15.2106 </r>
       <r>    17.3115    -0.1141    15.2097 </r>
       <r>    17.3195    -0.0056    15.2096 </r>
       <r>    17.3275    -0.0001    15.2096 </r>
       <r>    17.3355    -0.0000    15.2096 </r>
       <r>    17.3435    -0.0000    15.2096 </r>
       <r>    17.3515    -0.0000    15.2096 </r>
       <r>    17.3595     0.0000    15.2096 </r>
       <r>    17.3675     0.0000    15.2096 </r>
       <r>    17.3755    -0.0000    15.2096 </r>
       <r>    17.3835    -0.0000    15.2096 </r>
       <r>    17.3915    -0.0000    15.2096 </r>
       <r>    17.3995    -0.0000    15.2096 </r>
       <r>    17.4075    -0.0000    15.2096 </r>
       <r>    17.4155    -0.0000    15.2096 </r>
       <r>    17.4235    -0.0000    15.2096 </r>
       <r>    17.4315    -0.0007    15.2096 </r>
       <r>    17.4395    -0.0245    15.2094 </r>
       <r>    17.4475    -0.1305    15.2084 </r>
       <r>    17.4555     0.7275    15.2142 </r>
       <r>    17.4635     2.7531    15.2362 </r>
       <r>    17.4715     1.3280    15.2468 </r>
       <r>    17.4795    -0.0961    15.2461 </r>
       <r>    17.4875    -0.0478    15.2457 </r>
       <r>    17.4955    -0.0021    15.2457 </r>
       <r>    17.5035    -0.0000    15.2457 </r>
       <r>    17.5115    -0.0000    15.2457 </r>
       <r>    17.5195    -0.0000    15.2457 </r>
       <r>    17.5275    -0.0000    15.2457 </r>
       <r>    17.5355     0.0000    15.2457 </r>
       <r>    17.5435     0.0000    15.2457 </r>
       <r>    17.5515     0.0000    15.2457 </r>
       <r>    17.5595     0.0000    15.2457 </r>
       <r>    17.5675     0.0000    15.2457 </r>
       <r>    17.5755    -0.0000    15.2457 </r>
       <r>    17.5835    -0.0000    15.2457 </r>
       <r>    17.5915    -0.0000    15.2457 </r>
       <r>    17.5995    -0.0000    15.2457 </r>
       <r>    17.6075    -0.0000    15.2457 </r>
       <r>    17.6155    -0.0000    15.2457 </r>
       <r>    17.6235    -0.0002    15.2457 </r>
       <r>    17.6315    -0.0146    15.2456 </r>
       <r>    17.6395    -0.1851    15.2441 </r>
       <r>    17.6475     0.2474    15.2461 </r>
       <r>    17.6555     4.3161    15.2806 </r>
       <r>    17.6635     4.5107    15.3167 </r>
       <r>    17.6715     0.2678    15.3188 </r>
       <r>    17.6795    -0.1449    15.3177 </r>
       <r>    17.6875     1.9703    15.3334 </r>
       <r>    17.6955     2.4050    15.3527 </r>
       <r>    17.7035     0.2660    15.3548 </r>
       <r>    17.7115    -0.1675    15.3535 </r>
       <r>    17.7195    -0.0724    15.3529 </r>
       <r>    17.7275     1.5537    15.3653 </r>
       <r>    17.7355     2.6711    15.3867 </r>
       <r>    17.7435     0.5513    15.3911 </r>
       <r>    17.7516    -0.1272    15.3901 </r>
       <r>    17.7596    -0.0189    15.3899 </r>
       <r>    17.7676    -0.0005    15.3899 </r>
       <r>    17.7756    -0.0000    15.3899 </r>
       <r>    17.7836    -0.0000    15.3899 </r>
       <r>    17.7916    -0.0000    15.3899 </r>
       <r>    17.7996    -0.0000    15.3899 </r>
       <r>    17.8076    -0.0000    15.3899 </r>
       <r>    17.8156    -0.0000    15.3899 </r>
       <r>    17.8236    -0.0001    15.3899 </r>
       <r>    17.8316    -0.0062    15.3899 </r>
       <r>    17.8396    -0.0570    15.3894 </r>
       <r>    17.8476     0.1623    15.3907 </r>
       <r>    17.8556     1.2377    15.4006 </r>
       <r>    17.8636     0.9467    15.4082 </r>
       <r>    17.8716     0.0108    15.4083 </r>
       <r>    17.8796    -0.0382    15.4080 </r>
       <r>    17.8876    -0.0024    15.4080 </r>
       <r>    17.8956    -0.0000    15.4080 </r>
       <r>    17.9036    -0.0000    15.4080 </r>
       <r>    17.9116    -0.0000    15.4080 </r>
       <r>    17.9196    -0.0000    15.4080 </r>
       <r>    17.9276    -0.0000    15.4080 </r>
       <r>    17.9356    -0.0000    15.4080 </r>
       <r>    17.9436    -0.0000    15.4080 </r>
       <r>    17.9516    -0.0000    15.4080 </r>
       <r>    17.9596    -0.0000    15.4080 </r>
       <r>    17.9676    -0.0000    15.4080 </r>
       <r>    17.9756    -0.0002    15.4080 </r>
       <r>    17.9836    -0.0130    15.4079 </r>
       <r>    17.9916    -0.1756    15.4065 </r>
       <r>    17.9996     0.1807    15.4079 </r>
       <r>    18.0076     4.1658    15.4412 </r>
       <r>    18.0156     4.6527    15.4785 </r>
       <r>    18.0236     0.4304    15.4819 </r>
       <r>    18.0316    -0.2074    15.4802 </r>
       <r>    18.0396    -0.0191    15.4801 </r>
       <r>    18.0476    -0.0003    15.4801 </r>
       <r>    18.0556    -0.0000    15.4801 </r>
       <r>    18.0636    -0.0000    15.4801 </r>
       <r>    18.0716    -0.0000    15.4801 </r>
       <r>    18.0796    -0.0000    15.4801 </r>
       <r>    18.0876    -0.0000    15.4801 </r>
       <r>    18.0956    -0.0000    15.4801 </r>
       <r>    18.1036    -0.0024    15.4801 </r>
       <r>    18.1116    -0.0521    15.4797 </r>
       <r>    18.1196    -0.0832    15.4790 </r>
       <r>    18.1276     1.4213    15.4904 </r>
       <r>    18.1356     2.6898    15.5119 </r>
       <r>    18.1436     0.6381    15.5170 </r>
       <r>    18.1516     0.7329    15.5229 </r>
       <r>    18.1596     1.2696    15.5330 </r>
       <r>    18.1676     0.2152    15.5347 </r>
       <r>    18.1756    -0.0608    15.5342 </r>
       <r>    18.1836    -0.0077    15.5342 </r>
       <r>    18.1916    -0.0002    15.5342 </r>
       <r>    18.1996    -0.0000    15.5342 </r>
       <r>    18.2076    -0.0000    15.5342 </r>
       <r>    18.2156    -0.0028    15.5342 </r>
       <r>    18.2236    -0.0571    15.5337 </r>
       <r>    18.2316    -0.0662    15.5332 </r>
       <r>    18.2396     1.5277    15.5454 </r>
       <r>    18.2476     2.6826    15.5669 </r>
       <r>    18.2557     0.5706    15.5714 </r>
       <r>    18.2637    -0.1279    15.5704 </r>
       <r>    18.2717    -0.0225    15.5702 </r>
       <r>    18.2797    -0.0761    15.5696 </r>
       <r>    18.2877    -0.2231    15.5678 </r>
       <r>    18.2957     2.1470    15.5850 </r>
       <r>    18.3037     5.5181    15.6292 </r>
       <r>    18.3117     1.9567    15.6448 </r>
       <r>    18.3197    -0.2354    15.6429 </r>
       <r>    18.3277    -0.0682    15.6424 </r>
       <r>    18.3357    -0.0025    15.6424 </r>
       <r>    18.3437    -0.0000    15.6424 </r>
       <r>    18.3517    -0.0000    15.6424 </r>
       <r>    18.3597    -0.0000    15.6424 </r>
       <r>    18.3677    -0.0000    15.6424 </r>
       <r>    18.3757    -0.0000    15.6424 </r>
       <r>    18.3837    -0.0000    15.6424 </r>
       <r>    18.3917    -0.0000    15.6424 </r>
       <r>    18.3997    -0.0000    15.6424 </r>
       <r>    18.4077    -0.0000    15.6424 </r>
       <r>    18.4157    -0.0000    15.6424 </r>
       <r>    18.4237    -0.0000    15.6424 </r>
       <r>    18.4317    -0.0024    15.6424 </r>
       <r>    18.4397    -0.0514    15.6419 </r>
       <r>    18.4477    -0.0852    15.6413 </r>
       <r>    18.4557     1.4089    15.6525 </r>
       <r>    18.4637     2.7283    15.6744 </r>
       <r>    18.4717     0.6618    15.6797 </r>
       <r>    18.4797    -0.1300    15.6786 </r>
       <r>    18.4877    -0.0226    15.6784 </r>
       <r>    18.4957    -0.0132    15.6783 </r>
       <r>    18.5037    -0.1146    15.6774 </r>
       <r>    18.5117     0.3319    15.6801 </r>
       <r>    18.5197     2.4839    15.6999 </r>
       <r>    18.5277     1.8814    15.7150 </r>
       <r>    18.5357     0.0180    15.7151 </r>
       <r>    18.5437    -0.0758    15.7145 </r>
       <r>    18.5517    -0.0048    15.7145 </r>
       <r>    18.5597    -0.0001    15.7145 </r>
       <r>    18.5677    -0.0000    15.7145 </r>
       <r>    18.5757    -0.0000    15.7145 </r>
       <r>    18.5837    -0.0000    15.7145 </r>
       <r>    18.5917     0.0000    15.7145 </r>
       <r>    18.5997     0.0000    15.7145 </r>
       <r>    18.6077     0.0000    15.7145 </r>
       <r>    18.6157     0.0000    15.7145 </r>
       <r>    18.6237     0.0000    15.7145 </r>
       <r>    18.6317     0.0000    15.7145 </r>
       <r>    18.6397     0.0000    15.7145 </r>
       <r>    18.6477     0.0000    15.7145 </r>
       <r>    18.6557     0.0000    15.7145 </r>
       <r>    18.6637     0.0000    15.7145 </r>
       <r>    18.6717     0.0000    15.7145 </r>
       <r>    18.6797     0.0000    15.7145 </r>
       <r>    18.6877     0.0000    15.7145 </r>
       <r>    18.6957     0.0000    15.7145 </r>
       <r>    18.7037     0.0000    15.7145 </r>
       <r>    18.7117     0.0000    15.7145 </r>
       <r>    18.7197     0.0000    15.7145 </r>
       <r>    18.7277     0.0000    15.7145 </r>
       <r>    18.7357     0.0000    15.7145 </r>
       <r>    18.7437     0.0000    15.7145 </r>
       <r>    18.7518     0.0000    15.7145 </r>
       <r>    18.7598     0.0000    15.7145 </r>
       <r>    18.7678     0.0000    15.7145 </r>
       <r>    18.7758    -0.0000    15.7145 </r>
       <r>    18.7838    -0.0000    15.7145 </r>
       <r>    18.7918    -0.0000    15.7145 </r>
       <r>    18.7998    -0.0000    15.7145 </r>
       <r>    18.8078    -0.0000    15.7145 </r>
       <r>    18.8158    -0.0000    15.7145 </r>
       <r>    18.8238    -0.0000    15.7145 </r>
       <r>    18.8318    -0.0025    15.7145 </r>
       <r>    18.8398    -0.0535    15.7141 </r>
       <r>    18.8478    -0.0786    15.7134 </r>
       <r>    18.8558     1.4529    15.7250 </r>
       <r>    18.8638     2.6961    15.7466 </r>
       <r>    18.8718     0.4325    15.7501 </r>
       <r>    18.8798     0.1907    15.7516 </r>
       <r>    18.8878     4.4404    15.7871 </r>
       <r>    18.8958     4.3725    15.8221 </r>
       <r>    18.9038     0.2748    15.8243 </r>
       <r>    18.9118    -0.1888    15.8228 </r>
       <r>    18.9198    -0.0153    15.8227 </r>
       <r>    18.9278    -0.0002    15.8227 </r>
       <r>    18.9358    -0.0000    15.8227 </r>
       <r>    18.9438    -0.0000    15.8227 </r>
       <r>    18.9518    -0.0000    15.8227 </r>
       <r>    18.9598     0.0000    15.8227 </r>
       <r>    18.9678     0.0000    15.8227 </r>
       <r>    18.9758     0.0000    15.8227 </r>
       <r>    18.9838     0.0000    15.8227 </r>
       <r>    18.9918     0.0000    15.8227 </r>
       <r>    18.9998     0.0000    15.8227 </r>
       <r>    19.0078     0.0000    15.8227 </r>
       <r>    19.0158     0.0000    15.8227 </r>
       <r>    19.0238     0.0000    15.8227 </r>
       <r>    19.0318     0.0000    15.8227 </r>
       <r>    19.0398     0.0000    15.8227 </r>
       <r>    19.0478    -0.0000    15.8227 </r>
       <r>    19.0558    -0.0000    15.8227 </r>
       <r>    19.0638    -0.0000    15.8227 </r>
       <r>    19.0718    -0.0000    15.8227 </r>
       <r>    19.0798    -0.0000    15.8227 </r>
       <r>    19.0878    -0.0000    15.8227 </r>
       <r>    19.0958    -0.0000    15.8227 </r>
       <r>    19.1038    -0.0004    15.8227 </r>
       <r>    19.1118    -0.0211    15.8225 </r>
       <r>    19.1198    -0.2153    15.8208 </r>
       <r>    19.1278     0.5073    15.8249 </r>
       <r>    19.1358     4.7683    15.8630 </r>
       <r>    19.1438     4.0281    15.8952 </r>
       <r>    19.1518     0.1249    15.8962 </r>
       <r>    19.1598    -0.2035    15.8946 </r>
       <r>    19.1678    -0.1328    15.8935 </r>
       <r>    19.1758     1.0538    15.9020 </r>
       <r>    19.1838     2.7972    15.9244 </r>
       <r>    19.1918     0.9743    15.9322 </r>
       <r>    19.1998    -0.1253    15.9312 </r>
       <r>    19.2078    -0.0333    15.9309 </r>
       <r>    19.2158    -0.0011    15.9309 </r>
       <r>    19.2238    -0.0000    15.9309 </r>
       <r>    19.2318    -0.0000    15.9309 </r>
       <r>    19.2398    -0.0000    15.9309 </r>
       <r>    19.2478    -0.0000    15.9309 </r>
       <r>    19.2559    -0.0000    15.9309 </r>
       <r>    19.2639    -0.0000    15.9309 </r>
       <r>    19.2719    -0.0000    15.9309 </r>
       <r>    19.2799    -0.0001    15.9309 </r>
       <r>    19.2879    -0.0057    15.9308 </r>
       <r>    19.2959    -0.0555    15.9304 </r>
       <r>    19.3039     0.1442    15.9315 </r>
       <r>    19.3119     1.2109    15.9412 </r>
       <r>    19.3199     0.9010    15.9484 </r>
       <r>    19.3279     0.0390    15.9488 </r>
       <r>    19.3359     1.8424    15.9635 </r>
       <r>    19.3439     2.4805    15.9833 </r>
       <r>    19.3519     0.3313    15.9860 </r>
       <r>    19.3599    -0.1146    15.9851 </r>
       <r>    19.3679    -0.0126    15.9850 </r>
       <r>    19.3759    -0.0003    15.9850 </r>
       <r>    19.3839    -0.0000    15.9850 </r>
       <r>    19.3919    -0.0000    15.9850 </r>
       <r>    19.3999    -0.0000    15.9850 </r>
       <r>    19.4079    -0.0000    15.9850 </r>
       <r>    19.4159    -0.0000    15.9850 </r>
       <r>    19.4239    -0.0000    15.9850 </r>
       <r>    19.4319    -0.0000    15.9850 </r>
       <r>    19.4399    -0.0000    15.9850 </r>
       <r>    19.4479    -0.0000    15.9850 </r>
       <r>    19.4559    -0.0001    15.9850 </r>
       <r>    19.4639    -0.0087    15.9849 </r>
       <r>    19.4719    -0.1436    15.9838 </r>
       <r>    19.4799    -0.0052    15.9837 </r>
       <r>    19.4879     3.6218    16.0127 </r>
       <r>    19.4959     5.0622    16.0532 </r>
       <r>    19.5039     0.7518    16.0592 </r>
       <r>    19.5119    -0.2359    16.0573 </r>
       <r>    19.5199    -0.0276    16.0571 </r>
       <r>    19.5279    -0.0006    16.0571 </r>
       <r>    19.5359    -0.0000    16.0571 </r>
       <r>    19.5439    -0.0000    16.0571 </r>
       <r>    19.5519    -0.0000    16.0571 </r>
       <r>    19.5599    -0.0000    16.0571 </r>
       <r>    19.5679    -0.0000    16.0571 </r>
       <r>    19.5759    -0.0000    16.0571 </r>
       <r>    19.5839    -0.0000    16.0571 </r>
       <r>    19.5919    -0.0000    16.0571 </r>
       <r>    19.5999    -0.0000    16.0571 </r>
       <r>    19.6079    -0.0000    16.0571 </r>
       <r>    19.6159    -0.0004    16.0571 </r>
       <r>    19.6239    -0.0201    16.0569 </r>
       <r>    19.6319    -0.2220    16.0552 </r>
       <r>    19.6399     0.4089    16.0584 </r>
       <r>    19.6479     5.0456    16.0988 </r>
       <r>    19.6559     5.0648    16.1393 </r>
       <r>    19.6639     0.4789    16.1432 </r>
       <r>    19.6719    -0.2276    16.1413 </r>
       <r>    19.6799    -0.1350    16.1403 </r>
       <r>    19.6879     0.2968    16.1426 </r>
       <r>    19.6959     2.4426    16.1622 </r>
       <r>    19.7039     1.9387    16.1777 </r>
       <r>    19.7119     0.0364    16.1780 </r>
       <r>    19.7199    -0.0791    16.1774 </r>
       <r>    19.7279    -0.0052    16.1773 </r>
       <r>    19.7359    -0.0001    16.1773 </r>
       <r>    19.7439    -0.0000    16.1773 </r>
       <r>    19.7520    -0.0000    16.1773 </r>
       <r>    19.7600    -0.0000    16.1773 </r>
       <r>    19.7680    -0.0006    16.1773 </r>
       <r>    19.7760    -0.0215    16.1771 </r>
       <r>    19.7840    -0.1295    16.1761 </r>
       <r>    19.7920     0.6363    16.1812 </r>
       <r>    19.8000     2.7168    16.2029 </r>
       <r>    19.8080     1.4414    16.2145 </r>
       <r>    19.8160    -0.0804    16.2138 </r>
       <r>    19.8240    -0.0529    16.2134 </r>
       <r>    19.8320    -0.0025    16.2134 </r>
       <r>    19.8400    -0.0000    16.2134 </r>
       <r>    19.8480    -0.0000    16.2134 </r>
       <r>    19.8560    -0.0000    16.2134 </r>
       <r>    19.8640    -0.0001    16.2134 </r>
       <r>    19.8720    -0.0056    16.2133 </r>
       <r>    19.8800    -0.1135    16.2124 </r>
       <r>    19.8880    -0.1347    16.2113 </r>
       <r>    19.8960     3.0422    16.2357 </r>
       <r>    19.9040     5.3708    16.2787 </r>
       <r>    19.9120     1.1510    16.2879 </r>
       <r>    19.9200    -0.2560    16.2858 </r>
       <r>    19.9280    -0.0393    16.2855 </r>
       <r>    19.9360    -0.0010    16.2855 </r>
       <r>    19.9440    -0.0000    16.2855 </r>
       <r>    19.9520    -0.0000    16.2855 </r>
       <r>    19.9600    -0.0005    16.2855 </r>
       <r>    19.9680    -0.0202    16.2853 </r>
       <r>    19.9760    -0.1285    16.2843 </r>
       <r>    19.9840     0.5925    16.2890 </r>
       <r>    19.9920     2.6948    16.3106 </r>
       <r>    20.0000     1.4985    16.3226 </r>
      </set>
     </set>
    </array>
   </total>
  </dos>
 </calculation>
 <structure name="finalpos" >
  <crystal>
   <varray name="basis" >
    <v>      -1.81063100      -1.81063100       0.00000000 </v>
    <v>      -1.81063100       0.00000000      -1.81063100 </v>
    <v>       0.00000000      -1.81063100      -1.81063100 </v>
   </varray>
   <i name="volume">     11.87188964 </i>
   <varray name="rec_basis" >
    <v>      -0.27614682      -0.27614682       0.27614682 </v>
    <v>      -0.27614682       0.27614682      -0.27614682 </v>
    <v>       0.27614682      -0.27614682      -0.27614682 </v>
   </varray>
  </crystal>
  <varray name="positions" >
   <v>       0.00000000       0.00000000       0.00000000 </v>
  </varray>
 </structure>
</modeling>
