                                        
           1
    -1.810631   -1.810631    0.000000
    -1.810631    0.000000   -1.810631
     0.000000   -1.810631   -1.810631
   Cu
   1
                                        
           1
    -1.810631   -1.810631    0.000000
    -1.810631    0.000000   -1.810631
     0.000000   -1.810631   -1.810631
   Cu
   1
Direct configuration=     1
   0.00000000  0.00000000  0.00000000
