   2   2   0   0
  0.2957281E+02  0.4373332E-09  0.4373332E-09  0.4373333E-09  0.5000000E-15
  1.000000000000000E-004
  CAR 
                                         
     20.00000000    -20.00000000 5000      2.85257064      1.00000000
    -20.000  0.0000E+00  0.0000E+00
    -19.992  0.0000E+00  0.0000E+00
    -19.984  0.0000E+00  0.0000E+00
    -19.976  0.0000E+00  0.0000E+00
    -19.968  0.0000E+00  0.0000E+00
    -19.960  0.0000E+00  0.0000E+00
    -19.952  0.0000E+00  0.0000E+00
    -19.944  0.0000E+00  0.0000E+00
    -19.936  0.0000E+00  0.0000E+00
    -19.928  0.0000E+00  0.0000E+00
    -19.920  0.0000E+00  0.0000E+00
    -19.912  0.0000E+00  0.0000E+00
    -19.904  0.0000E+00  0.0000E+00
    -19.896  0.0000E+00  0.0000E+00
    -19.888  0.0000E+00  0.0000E+00
    -19.880  0.0000E+00  0.0000E+00
    -19.872  0.0000E+00  0.0000E+00
    -19.864  0.0000E+00  0.0000E+00
    -19.856  0.0000E+00  0.0000E+00
    -19.848  0.0000E+00  0.0000E+00
    -19.840  0.0000E+00  0.0000E+00
    -19.832  0.0000E+00  0.0000E+00
    -19.824  0.0000E+00  0.0000E+00
    -19.816  0.0000E+00  0.0000E+00
    -19.808  0.0000E+00  0.0000E+00
    -19.800  0.0000E+00  0.0000E+00
    -19.792  0.0000E+00  0.0000E+00
    -19.784  0.0000E+00  0.0000E+00
    -19.776  0.0000E+00  0.0000E+00
    -19.768  0.0000E+00  0.0000E+00
    -19.760  0.0000E+00  0.0000E+00
    -19.752  0.0000E+00  0.0000E+00
    -19.744  0.0000E+00  0.0000E+00
    -19.736  0.0000E+00  0.0000E+00
    -19.728  0.0000E+00  0.0000E+00
    -19.720  0.0000E+00  0.0000E+00
    -19.712  0.0000E+00  0.0000E+00
    -19.704  0.0000E+00  0.0000E+00
    -19.696  0.0000E+00  0.0000E+00
    -19.688  0.0000E+00  0.0000E+00
    -19.680  0.0000E+00  0.0000E+00
    -19.672  0.0000E+00  0.0000E+00
    -19.664  0.0000E+00  0.0000E+00
    -19.656  0.0000E+00  0.0000E+00
    -19.648  0.0000E+00  0.0000E+00
    -19.640  0.0000E+00  0.0000E+00
    -19.632  0.0000E+00  0.0000E+00
    -19.624  0.0000E+00  0.0000E+00
    -19.616  0.0000E+00  0.0000E+00
    -19.608  0.0000E+00  0.0000E+00
    -19.600  0.0000E+00  0.0000E+00
    -19.592  0.0000E+00  0.0000E+00
    -19.584  0.0000E+00  0.0000E+00
    -19.576  0.0000E+00  0.0000E+00
    -19.568  0.0000E+00  0.0000E+00
    -19.560  0.0000E+00  0.0000E+00
    -19.552  0.0000E+00  0.0000E+00
    -19.544  0.0000E+00  0.0000E+00
    -19.536  0.0000E+00  0.0000E+00
    -19.528  0.0000E+00  0.0000E+00
    -19.520  0.0000E+00  0.0000E+00
    -19.512  0.0000E+00  0.0000E+00
    -19.504  0.0000E+00  0.0000E+00
    -19.496  0.0000E+00  0.0000E+00
    -19.488  0.0000E+00  0.0000E+00
    -19.480  0.0000E+00  0.0000E+00
    -19.472  0.0000E+00  0.0000E+00
    -19.464  0.0000E+00  0.0000E+00
    -19.456  0.0000E+00  0.0000E+00
    -19.448  0.0000E+00  0.0000E+00
    -19.440  0.0000E+00  0.0000E+00
    -19.432  0.0000E+00  0.0000E+00
    -19.424  0.0000E+00  0.0000E+00
    -19.416  0.0000E+00  0.0000E+00
    -19.408  0.0000E+00  0.0000E+00
    -19.400  0.0000E+00  0.0000E+00
    -19.392  0.0000E+00  0.0000E+00
    -19.384  0.0000E+00  0.0000E+00
    -19.376  0.0000E+00  0.0000E+00
    -19.368  0.0000E+00  0.0000E+00
    -19.360  0.0000E+00  0.0000E+00
    -19.352  0.0000E+00  0.0000E+00
    -19.344  0.0000E+00  0.0000E+00
    -19.336  0.0000E+00  0.0000E+00
    -19.328  0.0000E+00  0.0000E+00
    -19.320  0.0000E+00  0.0000E+00
    -19.312  0.0000E+00  0.0000E+00
    -19.304  0.0000E+00  0.0000E+00
    -19.296  0.0000E+00  0.0000E+00
    -19.288  0.0000E+00  0.0000E+00
    -19.280  0.0000E+00  0.0000E+00
    -19.272  0.0000E+00  0.0000E+00
    -19.264  0.0000E+00  0.0000E+00
    -19.256  0.0000E+00  0.0000E+00
    -19.248  0.0000E+00  0.0000E+00
    -19.240  0.0000E+00  0.0000E+00
    -19.232  0.0000E+00  0.0000E+00
    -19.224  0.0000E+00  0.0000E+00
    -19.216  0.0000E+00  0.0000E+00
    -19.208  0.0000E+00  0.0000E+00
    -19.200  0.0000E+00  0.0000E+00
    -19.192  0.0000E+00  0.0000E+00
    -19.184  0.0000E+00  0.0000E+00
    -19.176  0.0000E+00  0.0000E+00
    -19.168  0.0000E+00  0.0000E+00
    -19.160  0.0000E+00  0.0000E+00
    -19.152  0.0000E+00  0.0000E+00
    -19.144  0.0000E+00  0.0000E+00
    -19.136  0.0000E+00  0.0000E+00
    -19.128  0.0000E+00  0.0000E+00
    -19.120  0.0000E+00  0.0000E+00
    -19.112  0.0000E+00  0.0000E+00
    -19.104  0.0000E+00  0.0000E+00
    -19.096  0.0000E+00  0.0000E+00
    -19.088  0.0000E+00  0.0000E+00
    -19.080  0.0000E+00  0.0000E+00
    -19.072  0.0000E+00  0.0000E+00
    -19.064  0.0000E+00  0.0000E+00
    -19.056  0.0000E+00  0.0000E+00
    -19.048  0.0000E+00  0.0000E+00
    -19.040  0.0000E+00  0.0000E+00
    -19.032  0.0000E+00  0.0000E+00
    -19.024  0.0000E+00  0.0000E+00
    -19.016  0.0000E+00  0.0000E+00
    -19.008  0.0000E+00  0.0000E+00
    -19.000  0.0000E+00  0.0000E+00
    -18.992  0.0000E+00  0.0000E+00
    -18.984  0.0000E+00  0.0000E+00
    -18.976  0.0000E+00  0.0000E+00
    -18.968  0.0000E+00  0.0000E+00
    -18.960  0.0000E+00  0.0000E+00
    -18.952  0.0000E+00  0.0000E+00
    -18.944  0.0000E+00  0.0000E+00
    -18.936  0.0000E+00  0.0000E+00
    -18.928  0.0000E+00  0.0000E+00
    -18.920  0.0000E+00  0.0000E+00
    -18.912  0.0000E+00  0.0000E+00
    -18.904  0.0000E+00  0.0000E+00
    -18.896  0.0000E+00  0.0000E+00
    -18.888  0.0000E+00  0.0000E+00
    -18.880  0.0000E+00  0.0000E+00
    -18.872  0.0000E+00  0.0000E+00
    -18.864  0.0000E+00  0.0000E+00
    -18.856  0.0000E+00  0.0000E+00
    -18.848  0.0000E+00  0.0000E+00
    -18.840  0.0000E+00  0.0000E+00
    -18.832  0.0000E+00  0.0000E+00
    -18.824  0.0000E+00  0.0000E+00
    -18.816  0.0000E+00  0.0000E+00
    -18.808  0.0000E+00  0.0000E+00
    -18.800  0.0000E+00  0.0000E+00
    -18.792  0.0000E+00  0.0000E+00
    -18.784  0.0000E+00  0.0000E+00
    -18.776  0.0000E+00  0.0000E+00
    -18.768  0.0000E+00  0.0000E+00
    -18.760  0.0000E+00  0.0000E+00
    -18.752  0.0000E+00  0.0000E+00
    -18.744  0.0000E+00  0.0000E+00
    -18.736  0.0000E+00  0.0000E+00
    -18.728  0.0000E+00  0.0000E+00
    -18.720  0.0000E+00  0.0000E+00
    -18.712  0.0000E+00  0.0000E+00
    -18.704  0.0000E+00  0.0000E+00
    -18.696  0.0000E+00  0.0000E+00
    -18.688  0.0000E+00  0.0000E+00
    -18.680  0.0000E+00  0.0000E+00
    -18.672  0.0000E+00  0.0000E+00
    -18.664  0.0000E+00  0.0000E+00
    -18.656  0.0000E+00  0.0000E+00
    -18.648  0.0000E+00  0.0000E+00
    -18.640  0.0000E+00  0.0000E+00
    -18.632  0.0000E+00  0.0000E+00
    -18.624  0.0000E+00  0.0000E+00
    -18.616  0.0000E+00  0.0000E+00
    -18.608  0.0000E+00  0.0000E+00
    -18.600  0.0000E+00  0.0000E+00
    -18.592  0.0000E+00  0.0000E+00
    -18.584  0.0000E+00  0.0000E+00
    -18.576  0.0000E+00  0.0000E+00
    -18.568  0.0000E+00  0.0000E+00
    -18.560  0.0000E+00  0.0000E+00
    -18.552  0.0000E+00  0.0000E+00
    -18.544  0.0000E+00  0.0000E+00
    -18.536  0.0000E+00  0.0000E+00
    -18.528  0.0000E+00  0.0000E+00
    -18.520  0.0000E+00  0.0000E+00
    -18.512  0.0000E+00  0.0000E+00
    -18.504  0.0000E+00  0.0000E+00
    -18.496  0.0000E+00  0.0000E+00
    -18.488  0.0000E+00  0.0000E+00
    -18.480  0.0000E+00  0.0000E+00
    -18.472  0.0000E+00  0.0000E+00
    -18.464  0.0000E+00  0.0000E+00
    -18.456  0.0000E+00  0.0000E+00
    -18.448  0.0000E+00  0.0000E+00
    -18.440  0.0000E+00  0.0000E+00
    -18.432  0.0000E+00  0.0000E+00
    -18.424  0.0000E+00  0.0000E+00
    -18.416  0.0000E+00  0.0000E+00
    -18.408  0.0000E+00  0.0000E+00
    -18.400  0.0000E+00  0.0000E+00
    -18.392  0.0000E+00  0.0000E+00
    -18.384  0.0000E+00  0.0000E+00
    -18.376  0.0000E+00  0.0000E+00
    -18.368  0.0000E+00  0.0000E+00
    -18.360  0.0000E+00  0.0000E+00
    -18.352  0.0000E+00  0.0000E+00
    -18.344  0.0000E+00  0.0000E+00
    -18.336  0.0000E+00  0.0000E+00
    -18.328  0.0000E+00  0.0000E+00
    -18.320  0.0000E+00  0.0000E+00
    -18.312  0.0000E+00  0.0000E+00
    -18.304  0.0000E+00  0.0000E+00
    -18.296  0.0000E+00  0.0000E+00
    -18.288  0.0000E+00  0.0000E+00
    -18.280  0.0000E+00  0.0000E+00
    -18.272  0.0000E+00  0.0000E+00
    -18.264  0.0000E+00  0.0000E+00
    -18.256  0.0000E+00  0.0000E+00
    -18.248  0.0000E+00  0.0000E+00
    -18.240  0.0000E+00  0.0000E+00
    -18.232  0.0000E+00  0.0000E+00
    -18.224  0.0000E+00  0.0000E+00
    -18.216  0.0000E+00  0.0000E+00
    -18.208  0.0000E+00  0.0000E+00
    -18.200  0.0000E+00  0.0000E+00
    -18.192  0.0000E+00  0.0000E+00
    -18.184  0.0000E+00  0.0000E+00
    -18.176  0.0000E+00  0.0000E+00
    -18.168  0.0000E+00  0.0000E+00
    -18.160  0.0000E+00  0.0000E+00
    -18.152  0.0000E+00  0.0000E+00
    -18.144  0.0000E+00  0.0000E+00
    -18.136  0.0000E+00  0.0000E+00
    -18.128  0.0000E+00  0.0000E+00
    -18.120  0.0000E+00  0.0000E+00
    -18.112  0.0000E+00  0.0000E+00
    -18.104  0.0000E+00  0.0000E+00
    -18.096  0.0000E+00  0.0000E+00
    -18.088  0.0000E+00  0.0000E+00
    -18.080  0.0000E+00  0.0000E+00
    -18.072  0.0000E+00  0.0000E+00
    -18.064  0.0000E+00  0.0000E+00
    -18.056  0.0000E+00  0.0000E+00
    -18.048  0.0000E+00  0.0000E+00
    -18.040  0.0000E+00  0.0000E+00
    -18.032  0.0000E+00  0.0000E+00
    -18.024  0.0000E+00  0.0000E+00
    -18.016  0.0000E+00  0.0000E+00
    -18.008  0.0000E+00  0.0000E+00
    -18.000  0.0000E+00  0.0000E+00
    -17.992  0.0000E+00  0.0000E+00
    -17.984  0.0000E+00  0.0000E+00
    -17.976  0.0000E+00  0.0000E+00
    -17.968  0.0000E+00  0.0000E+00
    -17.960  0.0000E+00  0.0000E+00
    -17.952  0.0000E+00  0.0000E+00
    -17.944  0.0000E+00  0.0000E+00
    -17.936  0.0000E+00  0.0000E+00
    -17.928  0.0000E+00  0.0000E+00
    -17.920  0.0000E+00  0.0000E+00
    -17.912  0.0000E+00  0.0000E+00
    -17.904  0.0000E+00  0.0000E+00
    -17.896  0.0000E+00  0.0000E+00
    -17.888  0.0000E+00  0.0000E+00
    -17.880  0.0000E+00  0.0000E+00
    -17.872  0.0000E+00  0.0000E+00
    -17.864  0.0000E+00  0.0000E+00
    -17.856  0.0000E+00  0.0000E+00
    -17.848  0.0000E+00  0.0000E+00
    -17.840  0.0000E+00  0.0000E+00
    -17.832  0.0000E+00  0.0000E+00
    -17.824  0.0000E+00  0.0000E+00
    -17.816  0.0000E+00  0.0000E+00
    -17.808  0.0000E+00  0.0000E+00
    -17.800  0.0000E+00  0.0000E+00
    -17.792  0.0000E+00  0.0000E+00
    -17.784  0.0000E+00  0.0000E+00
    -17.776  0.0000E+00  0.0000E+00
    -17.768  0.0000E+00  0.0000E+00
    -17.760  0.0000E+00  0.0000E+00
    -17.752  0.0000E+00  0.0000E+00
    -17.744  0.0000E+00  0.0000E+00
    -17.736  0.0000E+00  0.0000E+00
    -17.728  0.0000E+00  0.0000E+00
    -17.720  0.0000E+00  0.0000E+00
    -17.712  0.0000E+00  0.0000E+00
    -17.704  0.0000E+00  0.0000E+00
    -17.696  0.0000E+00  0.0000E+00
    -17.688  0.0000E+00  0.0000E+00
    -17.680  0.0000E+00  0.0000E+00
    -17.672  0.0000E+00  0.0000E+00
    -17.664  0.0000E+00  0.0000E+00
    -17.656  0.0000E+00  0.0000E+00
    -17.648  0.0000E+00  0.0000E+00
    -17.640  0.0000E+00  0.0000E+00
    -17.632  0.0000E+00  0.0000E+00
    -17.624  0.0000E+00  0.0000E+00
    -17.616  0.0000E+00  0.0000E+00
    -17.608  0.0000E+00  0.0000E+00
    -17.600  0.0000E+00  0.0000E+00
    -17.592  0.0000E+00  0.0000E+00
    -17.584  0.0000E+00  0.0000E+00
    -17.576  0.0000E+00  0.0000E+00
    -17.568  0.0000E+00  0.0000E+00
    -17.560  0.0000E+00  0.0000E+00
    -17.552  0.0000E+00  0.0000E+00
    -17.544  0.0000E+00  0.0000E+00
    -17.536  0.0000E+00  0.0000E+00
    -17.528  0.0000E+00  0.0000E+00
    -17.520  0.0000E+00  0.0000E+00
    -17.512  0.0000E+00  0.0000E+00
    -17.504  0.0000E+00  0.0000E+00
    -17.495  0.0000E+00  0.0000E+00
    -17.487  0.0000E+00  0.0000E+00
    -17.479  0.0000E+00  0.0000E+00
    -17.471  0.0000E+00  0.0000E+00
    -17.463  0.0000E+00  0.0000E+00
    -17.455  0.0000E+00  0.0000E+00
    -17.447  0.0000E+00  0.0000E+00
    -17.439  0.0000E+00  0.0000E+00
    -17.431  0.0000E+00  0.0000E+00
    -17.423  0.0000E+00  0.0000E+00
    -17.415  0.0000E+00  0.0000E+00
    -17.407  0.0000E+00  0.0000E+00
    -17.399  0.0000E+00  0.0000E+00
    -17.391  0.0000E+00  0.0000E+00
    -17.383  0.0000E+00  0.0000E+00
    -17.375  0.0000E+00  0.0000E+00
    -17.367  0.0000E+00  0.0000E+00
    -17.359  0.0000E+00  0.0000E+00
    -17.351  0.0000E+00  0.0000E+00
    -17.343  0.0000E+00  0.0000E+00
    -17.335  0.0000E+00  0.0000E+00
    -17.327  0.0000E+00  0.0000E+00
    -17.319  0.0000E+00  0.0000E+00
    -17.311  0.0000E+00  0.0000E+00
    -17.303  0.0000E+00  0.0000E+00
    -17.295  0.0000E+00  0.0000E+00
    -17.287  0.0000E+00  0.0000E+00
    -17.279  0.0000E+00  0.0000E+00
    -17.271  0.0000E+00  0.0000E+00
    -17.263  0.0000E+00  0.0000E+00
    -17.255  0.0000E+00  0.0000E+00
    -17.247  0.0000E+00  0.0000E+00
    -17.239  0.0000E+00  0.0000E+00
    -17.231  0.0000E+00  0.0000E+00
    -17.223  0.0000E+00  0.0000E+00
    -17.215  0.0000E+00  0.0000E+00
    -17.207  0.0000E+00  0.0000E+00
    -17.199  0.0000E+00  0.0000E+00
    -17.191  0.0000E+00  0.0000E+00
    -17.183  0.0000E+00  0.0000E+00
    -17.175  0.0000E+00  0.0000E+00
    -17.167  0.0000E+00  0.0000E+00
    -17.159  0.0000E+00  0.0000E+00
    -17.151  0.0000E+00  0.0000E+00
    -17.143  0.0000E+00  0.0000E+00
    -17.135  0.0000E+00  0.0000E+00
    -17.127  0.0000E+00  0.0000E+00
    -17.119  0.0000E+00  0.0000E+00
    -17.111  0.0000E+00  0.0000E+00
    -17.103  0.0000E+00  0.0000E+00
    -17.095  0.0000E+00  0.0000E+00
    -17.087  0.0000E+00  0.0000E+00
    -17.079  0.0000E+00  0.0000E+00
    -17.071  0.0000E+00  0.0000E+00
    -17.063  0.0000E+00  0.0000E+00
    -17.055  0.0000E+00  0.0000E+00
    -17.047  0.0000E+00  0.0000E+00
    -17.039  0.0000E+00  0.0000E+00
    -17.031  0.0000E+00  0.0000E+00
    -17.023  0.0000E+00  0.0000E+00
    -17.015  0.0000E+00  0.0000E+00
    -17.007  0.0000E+00  0.0000E+00
    -16.999  0.0000E+00  0.0000E+00
    -16.991  0.0000E+00  0.0000E+00
    -16.983  0.0000E+00  0.0000E+00
    -16.975  0.0000E+00  0.0000E+00
    -16.967  0.0000E+00  0.0000E+00
    -16.959  0.0000E+00  0.0000E+00
    -16.951  0.0000E+00  0.0000E+00
    -16.943  0.0000E+00  0.0000E+00
    -16.935  0.0000E+00  0.0000E+00
    -16.927  0.0000E+00  0.0000E+00
    -16.919  0.0000E+00  0.0000E+00
    -16.911  0.0000E+00  0.0000E+00
    -16.903  0.0000E+00  0.0000E+00
    -16.895  0.0000E+00  0.0000E+00
    -16.887  0.0000E+00  0.0000E+00
    -16.879  0.0000E+00  0.0000E+00
    -16.871  0.0000E+00  0.0000E+00
    -16.863  0.0000E+00  0.0000E+00
    -16.855  0.0000E+00  0.0000E+00
    -16.847  0.0000E+00  0.0000E+00
    -16.839  0.0000E+00  0.0000E+00
    -16.831  0.0000E+00  0.0000E+00
    -16.823  0.0000E+00  0.0000E+00
    -16.815  0.0000E+00  0.0000E+00
    -16.807  0.0000E+00  0.0000E+00
    -16.799  0.0000E+00  0.0000E+00
    -16.791  0.0000E+00  0.0000E+00
    -16.783  0.0000E+00  0.0000E+00
    -16.775  0.0000E+00  0.0000E+00
    -16.767  0.0000E+00  0.0000E+00
    -16.759  0.0000E+00  0.0000E+00
    -16.751  0.0000E+00  0.0000E+00
    -16.743  0.0000E+00  0.0000E+00
    -16.735  0.0000E+00  0.0000E+00
    -16.727  0.0000E+00  0.0000E+00
    -16.719  0.0000E+00  0.0000E+00
    -16.711  0.0000E+00  0.0000E+00
    -16.703  0.0000E+00  0.0000E+00
    -16.695  0.0000E+00  0.0000E+00
    -16.687  0.0000E+00  0.0000E+00
    -16.679  0.0000E+00  0.0000E+00
    -16.671  0.0000E+00  0.0000E+00
    -16.663  0.0000E+00  0.0000E+00
    -16.655  0.0000E+00  0.0000E+00
    -16.647  0.0000E+00  0.0000E+00
    -16.639  0.0000E+00  0.0000E+00
    -16.631  0.0000E+00  0.0000E+00
    -16.623  0.0000E+00  0.0000E+00
    -16.615  0.0000E+00  0.0000E+00
    -16.607  0.0000E+00  0.0000E+00
    -16.599  0.0000E+00  0.0000E+00
    -16.591  0.0000E+00  0.0000E+00
    -16.583  0.0000E+00  0.0000E+00
    -16.575  0.0000E+00  0.0000E+00
    -16.567  0.0000E+00  0.0000E+00
    -16.559  0.0000E+00  0.0000E+00
    -16.551  0.0000E+00  0.0000E+00
    -16.543  0.0000E+00  0.0000E+00
    -16.535  0.0000E+00  0.0000E+00
    -16.527  0.0000E+00  0.0000E+00
    -16.519  0.0000E+00  0.0000E+00
    -16.511  0.0000E+00  0.0000E+00
    -16.503  0.0000E+00  0.0000E+00
    -16.495  0.0000E+00  0.0000E+00
    -16.487  0.0000E+00  0.0000E+00
    -16.479  0.0000E+00  0.0000E+00
    -16.471  0.0000E+00  0.0000E+00
    -16.463  0.0000E+00  0.0000E+00
    -16.455  0.0000E+00  0.0000E+00
    -16.447  0.0000E+00  0.0000E+00
    -16.439  0.0000E+00  0.0000E+00
    -16.431  0.0000E+00  0.0000E+00
    -16.423  0.0000E+00  0.0000E+00
    -16.415  0.0000E+00  0.0000E+00
    -16.407  0.0000E+00  0.0000E+00
    -16.399  0.0000E+00  0.0000E+00
    -16.391  0.0000E+00  0.0000E+00
    -16.383  0.0000E+00  0.0000E+00
    -16.375  0.0000E+00  0.0000E+00
    -16.367  0.0000E+00  0.0000E+00
    -16.359  0.0000E+00  0.0000E+00
    -16.351  0.0000E+00  0.0000E+00
    -16.343  0.0000E+00  0.0000E+00
    -16.335  0.0000E+00  0.0000E+00
    -16.327  0.0000E+00  0.0000E+00
    -16.319  0.0000E+00  0.0000E+00
    -16.311  0.0000E+00  0.0000E+00
    -16.303  0.0000E+00  0.0000E+00
    -16.295  0.0000E+00  0.0000E+00
    -16.287  0.0000E+00  0.0000E+00
    -16.279  0.0000E+00  0.0000E+00
    -16.271  0.0000E+00  0.0000E+00
    -16.263  0.0000E+00  0.0000E+00
    -16.255  0.0000E+00  0.0000E+00
    -16.247  0.0000E+00  0.0000E+00
    -16.239  0.0000E+00  0.0000E+00
    -16.231  0.0000E+00  0.0000E+00
    -16.223  0.0000E+00  0.0000E+00
    -16.215  0.0000E+00  0.0000E+00
    -16.207  0.0000E+00  0.0000E+00
    -16.199  0.0000E+00  0.0000E+00
    -16.191  0.0000E+00  0.0000E+00
    -16.183  0.0000E+00  0.0000E+00
    -16.175  0.0000E+00  0.0000E+00
    -16.167  0.0000E+00  0.0000E+00
    -16.159  0.0000E+00  0.0000E+00
    -16.151  0.0000E+00  0.0000E+00
    -16.143  0.0000E+00  0.0000E+00
    -16.135  0.0000E+00  0.0000E+00
    -16.127  0.0000E+00  0.0000E+00
    -16.119  0.0000E+00  0.0000E+00
    -16.111  0.0000E+00  0.0000E+00
    -16.103  0.0000E+00  0.0000E+00
    -16.095  0.0000E+00  0.0000E+00
    -16.087  0.0000E+00  0.0000E+00
    -16.079  0.0000E+00  0.0000E+00
    -16.071  0.0000E+00  0.0000E+00
    -16.063  0.0000E+00  0.0000E+00
    -16.055  0.0000E+00  0.0000E+00
    -16.047  0.0000E+00  0.0000E+00
    -16.039  0.0000E+00  0.0000E+00
    -16.031  0.0000E+00  0.0000E+00
    -16.023  0.0000E+00  0.0000E+00
    -16.015  0.0000E+00  0.0000E+00
    -16.007  0.0000E+00  0.0000E+00
    -15.999  0.0000E+00  0.0000E+00
    -15.991  0.0000E+00  0.0000E+00
    -15.983  0.0000E+00  0.0000E+00
    -15.975  0.0000E+00  0.0000E+00
    -15.967  0.0000E+00  0.0000E+00
    -15.959  0.0000E+00  0.0000E+00
    -15.951  0.0000E+00  0.0000E+00
    -15.943  0.0000E+00  0.0000E+00
    -15.935  0.0000E+00  0.0000E+00
    -15.927  0.0000E+00  0.0000E+00
    -15.919  0.0000E+00  0.0000E+00
    -15.911  0.0000E+00  0.0000E+00
    -15.903  0.0000E+00  0.0000E+00
    -15.895  0.0000E+00  0.0000E+00
    -15.887  0.0000E+00  0.0000E+00
    -15.879  0.0000E+00  0.0000E+00
    -15.871  0.0000E+00  0.0000E+00
    -15.863  0.0000E+00  0.0000E+00
    -15.855  0.0000E+00  0.0000E+00
    -15.847  0.0000E+00  0.0000E+00
    -15.839  0.0000E+00  0.0000E+00
    -15.831  0.0000E+00  0.0000E+00
    -15.823  0.0000E+00  0.0000E+00
    -15.815  0.0000E+00  0.0000E+00
    -15.807  0.0000E+00  0.0000E+00
    -15.799  0.0000E+00  0.0000E+00
    -15.791  0.0000E+00  0.0000E+00
    -15.783  0.0000E+00  0.0000E+00
    -15.775  0.0000E+00  0.0000E+00
    -15.767  0.0000E+00  0.0000E+00
    -15.759  0.0000E+00  0.0000E+00
    -15.751  0.0000E+00  0.0000E+00
    -15.743  0.0000E+00  0.0000E+00
    -15.735  0.0000E+00  0.0000E+00
    -15.727  0.0000E+00  0.0000E+00
    -15.719  0.0000E+00  0.0000E+00
    -15.711  0.0000E+00  0.0000E+00
    -15.703  0.0000E+00  0.0000E+00
    -15.695  0.0000E+00  0.0000E+00
    -15.687  0.0000E+00  0.0000E+00
    -15.679  0.0000E+00  0.0000E+00
    -15.671  0.0000E+00  0.0000E+00
    -15.663  0.0000E+00  0.0000E+00
    -15.655  0.0000E+00  0.0000E+00
    -15.647  0.0000E+00  0.0000E+00
    -15.639  0.0000E+00  0.0000E+00
    -15.631  0.0000E+00  0.0000E+00
    -15.623  0.0000E+00  0.0000E+00
    -15.615  0.0000E+00  0.0000E+00
    -15.607  0.0000E+00  0.0000E+00
    -15.599  0.0000E+00  0.0000E+00
    -15.591  0.0000E+00  0.0000E+00
    -15.583  0.0000E+00  0.0000E+00
    -15.575  0.0000E+00  0.0000E+00
    -15.567  0.0000E+00  0.0000E+00
    -15.559  0.0000E+00  0.0000E+00
    -15.551  0.0000E+00  0.0000E+00
    -15.543  0.0000E+00  0.0000E+00
    -15.535  0.0000E+00  0.0000E+00
    -15.527  0.0000E+00  0.0000E+00
    -15.519  0.0000E+00  0.0000E+00
    -15.511  0.0000E+00  0.0000E+00
    -15.503  0.0000E+00  0.0000E+00
    -15.495  0.0000E+00  0.0000E+00
    -15.487  0.0000E+00  0.0000E+00
    -15.479  0.0000E+00  0.0000E+00
    -15.471  0.0000E+00  0.0000E+00
    -15.463  0.0000E+00  0.0000E+00
    -15.455  0.0000E+00  0.0000E+00
    -15.447  0.0000E+00  0.0000E+00
    -15.439  0.0000E+00  0.0000E+00
    -15.431  0.0000E+00  0.0000E+00
    -15.423  0.0000E+00  0.0000E+00
    -15.415  0.0000E+00  0.0000E+00
    -15.407  0.0000E+00  0.0000E+00
    -15.399  0.0000E+00  0.0000E+00
    -15.391  0.0000E+00  0.0000E+00
    -15.383  0.0000E+00  0.0000E+00
    -15.375  0.0000E+00  0.0000E+00
    -15.367  0.0000E+00  0.0000E+00
    -15.359  0.0000E+00  0.0000E+00
    -15.351  0.0000E+00  0.0000E+00
    -15.343  0.0000E+00  0.0000E+00
    -15.335  0.0000E+00  0.0000E+00
    -15.327  0.0000E+00  0.0000E+00
    -15.319  0.0000E+00  0.0000E+00
    -15.311  0.0000E+00  0.0000E+00
    -15.303  0.0000E+00  0.0000E+00
    -15.295  0.0000E+00  0.0000E+00
    -15.287  0.0000E+00  0.0000E+00
    -15.279  0.0000E+00  0.0000E+00
    -15.271  0.0000E+00  0.0000E+00
    -15.263  0.0000E+00  0.0000E+00
    -15.255  0.0000E+00  0.0000E+00
    -15.247  0.0000E+00  0.0000E+00
    -15.239  0.0000E+00  0.0000E+00
    -15.231  0.0000E+00  0.0000E+00
    -15.223  0.0000E+00  0.0000E+00
    -15.215  0.0000E+00  0.0000E+00
    -15.207  0.0000E+00  0.0000E+00
    -15.199  0.0000E+00  0.0000E+00
    -15.191  0.0000E+00  0.0000E+00
    -15.183  0.0000E+00  0.0000E+00
    -15.175  0.0000E+00  0.0000E+00
    -15.167  0.0000E+00  0.0000E+00
    -15.159  0.0000E+00  0.0000E+00
    -15.151  0.0000E+00  0.0000E+00
    -15.143  0.0000E+00  0.0000E+00
    -15.135  0.0000E+00  0.0000E+00
    -15.127  0.0000E+00  0.0000E+00
    -15.119  0.0000E+00  0.0000E+00
    -15.111  0.0000E+00  0.0000E+00
    -15.103  0.0000E+00  0.0000E+00
    -15.095  0.0000E+00  0.0000E+00
    -15.087  0.0000E+00  0.0000E+00
    -15.079  0.0000E+00  0.0000E+00
    -15.071  0.0000E+00  0.0000E+00
    -15.063  0.0000E+00  0.0000E+00
    -15.055  0.0000E+00  0.0000E+00
    -15.047  0.0000E+00  0.0000E+00
    -15.039  0.0000E+00  0.0000E+00
    -15.031  0.0000E+00  0.0000E+00
    -15.023  0.0000E+00  0.0000E+00
    -15.015  0.0000E+00  0.0000E+00
    -15.007  0.0000E+00  0.0000E+00
    -14.999  0.0000E+00  0.0000E+00
    -14.991  0.0000E+00  0.0000E+00
    -14.983  0.0000E+00  0.0000E+00
    -14.975  0.0000E+00  0.0000E+00
    -14.967  0.0000E+00  0.0000E+00
    -14.959  0.0000E+00  0.0000E+00
    -14.951  0.0000E+00  0.0000E+00
    -14.943  0.0000E+00  0.0000E+00
    -14.935  0.0000E+00  0.0000E+00
    -14.927  0.0000E+00  0.0000E+00
    -14.919  0.0000E+00  0.0000E+00
    -14.911  0.0000E+00  0.0000E+00
    -14.903  0.0000E+00  0.0000E+00
    -14.895  0.0000E+00  0.0000E+00
    -14.887  0.0000E+00  0.0000E+00
    -14.879  0.0000E+00  0.0000E+00
    -14.871  0.0000E+00  0.0000E+00
    -14.863  0.0000E+00  0.0000E+00
    -14.855  0.0000E+00  0.0000E+00
    -14.847  0.0000E+00  0.0000E+00
    -14.839  0.0000E+00  0.0000E+00
    -14.831  0.0000E+00  0.0000E+00
    -14.823  0.0000E+00  0.0000E+00
    -14.815  0.0000E+00  0.0000E+00
    -14.807  0.0000E+00  0.0000E+00
    -14.799  0.0000E+00  0.0000E+00
    -14.791  0.0000E+00  0.0000E+00
    -14.783  0.0000E+00  0.0000E+00
    -14.775  0.0000E+00  0.0000E+00
    -14.767  0.0000E+00  0.0000E+00
    -14.759  0.0000E+00  0.0000E+00
    -14.751  0.0000E+00  0.0000E+00
    -14.743  0.0000E+00  0.0000E+00
    -14.735  0.0000E+00  0.0000E+00
    -14.727  0.0000E+00  0.0000E+00
    -14.719  0.0000E+00  0.0000E+00
    -14.711  0.0000E+00  0.0000E+00
    -14.703  0.0000E+00  0.0000E+00
    -14.695  0.0000E+00  0.0000E+00
    -14.687  0.0000E+00  0.0000E+00
    -14.679  0.0000E+00  0.0000E+00
    -14.671  0.0000E+00  0.0000E+00
    -14.663  0.0000E+00  0.0000E+00
    -14.655  0.0000E+00  0.0000E+00
    -14.647  0.0000E+00  0.0000E+00
    -14.639  0.0000E+00  0.0000E+00
    -14.631  0.0000E+00  0.0000E+00
    -14.623  0.0000E+00  0.0000E+00
    -14.615  0.0000E+00  0.0000E+00
    -14.607  0.0000E+00  0.0000E+00
    -14.599  0.0000E+00  0.0000E+00
    -14.591  0.0000E+00  0.0000E+00
    -14.583  0.0000E+00  0.0000E+00
    -14.575  0.0000E+00  0.0000E+00
    -14.567  0.0000E+00  0.0000E+00
    -14.559  0.0000E+00  0.0000E+00
    -14.551  0.0000E+00  0.0000E+00
    -14.543  0.0000E+00  0.0000E+00
    -14.535  0.0000E+00  0.0000E+00
    -14.527  0.0000E+00  0.0000E+00
    -14.519  0.0000E+00  0.0000E+00
    -14.511  0.0000E+00  0.0000E+00
    -14.503  0.0000E+00  0.0000E+00
    -14.495  0.0000E+00  0.0000E+00
    -14.487  0.0000E+00  0.0000E+00
    -14.479  0.0000E+00  0.0000E+00
    -14.471  0.0000E+00  0.0000E+00
    -14.463  0.0000E+00  0.0000E+00
    -14.455  0.0000E+00  0.0000E+00
    -14.447  0.0000E+00  0.0000E+00
    -14.439  0.0000E+00  0.0000E+00
    -14.431  0.0000E+00  0.0000E+00
    -14.423  0.0000E+00  0.0000E+00
    -14.415  0.0000E+00  0.0000E+00
    -14.407  0.0000E+00  0.0000E+00
    -14.399  0.0000E+00  0.0000E+00
    -14.391  0.0000E+00  0.0000E+00
    -14.383  0.0000E+00  0.0000E+00
    -14.375  0.0000E+00  0.0000E+00
    -14.367  0.0000E+00  0.0000E+00
    -14.359  0.0000E+00  0.0000E+00
    -14.351  0.0000E+00  0.0000E+00
    -14.343  0.0000E+00  0.0000E+00
    -14.335  0.0000E+00  0.0000E+00
    -14.327  0.0000E+00  0.0000E+00
    -14.319  0.0000E+00  0.0000E+00
    -14.311  0.0000E+00  0.0000E+00
    -14.303  0.0000E+00  0.0000E+00
    -14.295  0.0000E+00  0.0000E+00
    -14.287  0.0000E+00  0.0000E+00
    -14.279  0.0000E+00  0.0000E+00
    -14.271  0.0000E+00  0.0000E+00
    -14.263  0.0000E+00  0.0000E+00
    -14.255  0.0000E+00  0.0000E+00
    -14.247  0.0000E+00  0.0000E+00
    -14.239  0.0000E+00  0.0000E+00
    -14.231  0.0000E+00  0.0000E+00
    -14.223  0.0000E+00  0.0000E+00
    -14.215  0.0000E+00  0.0000E+00
    -14.207  0.0000E+00  0.0000E+00
    -14.199  0.0000E+00  0.0000E+00
    -14.191  0.0000E+00  0.0000E+00
    -14.183  0.0000E+00  0.0000E+00
    -14.175  0.0000E+00  0.0000E+00
    -14.167  0.0000E+00  0.0000E+00
    -14.159  0.0000E+00  0.0000E+00
    -14.151  0.0000E+00  0.0000E+00
    -14.143  0.0000E+00  0.0000E+00
    -14.135  0.0000E+00  0.0000E+00
    -14.127  0.0000E+00  0.0000E+00
    -14.119  0.0000E+00  0.0000E+00
    -14.111  0.0000E+00  0.0000E+00
    -14.103  0.0000E+00  0.0000E+00
    -14.095  0.0000E+00  0.0000E+00
    -14.087  0.0000E+00  0.0000E+00
    -14.079  0.0000E+00  0.0000E+00
    -14.071  0.0000E+00  0.0000E+00
    -14.063  0.0000E+00  0.0000E+00
    -14.055  0.0000E+00  0.0000E+00
    -14.047  0.0000E+00  0.0000E+00
    -14.039  0.0000E+00  0.0000E+00
    -14.031  0.0000E+00  0.0000E+00
    -14.023  0.0000E+00  0.0000E+00
    -14.015  0.0000E+00  0.0000E+00
    -14.007  0.0000E+00  0.0000E+00
    -13.999  0.0000E+00  0.0000E+00
    -13.991  0.0000E+00  0.0000E+00
    -13.983  0.0000E+00  0.0000E+00
    -13.975  0.0000E+00  0.0000E+00
    -13.967  0.0000E+00  0.0000E+00
    -13.959  0.0000E+00  0.0000E+00
    -13.951  0.0000E+00  0.0000E+00
    -13.943  0.0000E+00  0.0000E+00
    -13.935  0.0000E+00  0.0000E+00
    -13.927  0.0000E+00  0.0000E+00
    -13.919  0.0000E+00  0.0000E+00
    -13.911  0.0000E+00  0.0000E+00
    -13.903  0.0000E+00  0.0000E+00
    -13.895  0.0000E+00  0.0000E+00
    -13.887  0.0000E+00  0.0000E+00
    -13.879  0.0000E+00  0.0000E+00
    -13.871  0.0000E+00  0.0000E+00
    -13.863  0.0000E+00  0.0000E+00
    -13.855  0.0000E+00  0.0000E+00
    -13.847  0.0000E+00  0.0000E+00
    -13.839  0.0000E+00  0.0000E+00
    -13.831  0.0000E+00  0.0000E+00
    -13.823  0.0000E+00  0.0000E+00
    -13.815  0.0000E+00  0.0000E+00
    -13.807  0.0000E+00  0.0000E+00
    -13.799  0.0000E+00  0.0000E+00
    -13.791  0.0000E+00  0.0000E+00
    -13.783  0.0000E+00  0.0000E+00
    -13.775  0.0000E+00  0.0000E+00
    -13.767  0.0000E+00  0.0000E+00
    -13.759  0.0000E+00  0.0000E+00
    -13.751  0.0000E+00  0.0000E+00
    -13.743  0.0000E+00  0.0000E+00
    -13.735  0.0000E+00  0.0000E+00
    -13.727  0.0000E+00  0.0000E+00
    -13.719  0.0000E+00  0.0000E+00
    -13.711  0.0000E+00  0.0000E+00
    -13.703  0.0000E+00  0.0000E+00
    -13.695  0.0000E+00  0.0000E+00
    -13.687  0.0000E+00  0.0000E+00
    -13.679  0.0000E+00  0.0000E+00
    -13.671  0.0000E+00  0.0000E+00
    -13.663  0.0000E+00  0.0000E+00
    -13.655  0.0000E+00  0.0000E+00
    -13.647  0.0000E+00  0.0000E+00
    -13.639  0.0000E+00  0.0000E+00
    -13.631  0.0000E+00  0.0000E+00
    -13.623  0.0000E+00  0.0000E+00
    -13.615  0.0000E+00  0.0000E+00
    -13.607  0.0000E+00  0.0000E+00
    -13.599  0.0000E+00  0.0000E+00
    -13.591  0.0000E+00  0.0000E+00
    -13.583  0.0000E+00  0.0000E+00
    -13.575  0.0000E+00  0.0000E+00
    -13.567  0.0000E+00  0.0000E+00
    -13.559  0.0000E+00  0.0000E+00
    -13.551  0.0000E+00  0.0000E+00
    -13.543  0.0000E+00  0.0000E+00
    -13.535  0.0000E+00  0.0000E+00
    -13.527  0.0000E+00  0.0000E+00
    -13.519  0.0000E+00  0.0000E+00
    -13.511  0.0000E+00  0.0000E+00
    -13.503  0.0000E+00  0.0000E+00
    -13.495  0.0000E+00  0.0000E+00
    -13.487  0.0000E+00  0.0000E+00
    -13.479  0.0000E+00  0.0000E+00
    -13.471  0.0000E+00  0.0000E+00
    -13.463  0.0000E+00  0.0000E+00
    -13.455  0.0000E+00  0.0000E+00
    -13.447  0.0000E+00  0.0000E+00
    -13.439  0.0000E+00  0.0000E+00
    -13.431  0.0000E+00  0.0000E+00
    -13.423  0.0000E+00  0.0000E+00
    -13.415  0.0000E+00  0.0000E+00
    -13.407  0.0000E+00  0.0000E+00
    -13.399  0.0000E+00  0.0000E+00