    2    2    1    1
  0.2957281E+02  0.4373332E-09  0.4373332E-09  0.4373333E-09  0.5000000E-15
  1.000000000000000E-004
  CAR 
                                         
   18   56   20
 
  0.3742002E-15  0.3742002E-15  0.3742002E-15  0.7513148E-03
   1       -8.715947
   2       -3.983048
   3       -3.983046
   4       -3.983043
   5       -3.775525
   6       -3.775523
   7        2.812846
   8        2.812846
   9        2.812847
  10        3.891526
  11        7.246263
  12        7.246264
  13        7.246265
  14       10.098423
  15       12.326912
  16       12.326914
  17       13.391429
  18       13.391429
  19       13.391432
  20       16.178874
 
  0.9090909E-01  0.3848585E-15  0.3742002E-15  0.6010518E-02
   1       -8.663134
   2       -3.978261
   3       -3.978257
   4       -3.977325
   5       -3.776096
   6       -3.776093
   7        1.951569
   8        2.727815
   9        2.727816
  10        4.515112
  11        7.273763
  12        7.382675
  13        7.382677
  14       10.577340
  15       11.827939
  16       11.827940
  17       13.062241
  18       14.181316
  19       14.181318
  20       16.826528
 
  0.1818182E+00  0.3813891E-15  0.3742002E-15  0.6010518E-02
   1       -8.514539
   2       -3.965944
   3       -3.965940
   4       -3.954374
   5       -3.776957
   6       -3.776954
   7        0.708779
   8        2.521524
   9        2.521524
  10        4.902308
  11        7.682084
  12        7.682086
  13        7.793631
  14       11.339420
  15       11.391509
  16       11.391510
  17       12.946635
  18       15.544501
  19       15.544503
  20       18.251817
 
  0.2727273E+00  0.3536335E-15  0.3742002E-15  0.6010518E-02
   1       -8.302013
   2       -3.951308
   3       -3.951305
   4       -3.898030
   5       -3.776245
   6       -3.776242
   7       -0.456520
   8        2.287012
   9        2.287012
  10        4.826671
  11        7.902130
  12        7.902131
  13        8.897849
  14       11.218302
  15       11.498865
  16       11.498867
  17       14.202914
  18       17.088178
  19       17.088180
  20       18.765114
 
  0.3636364E+00  0.3536335E-15  0.3742002E-15  0.6010518E-02
   1       -8.084323
   2       -3.939835
   3       -3.939832
   4       -3.791163
   5       -3.773275
   6       -3.773272
   7       -1.413532
   8        2.096912
   9        2.096912
  10        4.664983
  11        7.934896
  12        7.934898
  13       10.066329
  14       11.096891
  15       12.211741
  16       12.211742
  17       15.454485
  18       16.725300
  19       16.725302
  20       17.999847
 
  0.4545455E+00  0.3813891E-15  0.3742002E-15  0.6010518E-02
   1       -7.942149
   2       -3.934092
   3       -3.934089
   4       -3.770249
   5       -3.770246
   6       -3.663571
   7       -2.009009
   8        1.992766
   9        1.992766
  10        4.566231
  11        7.898054
  12        7.898056
  13       10.361974
  14       11.914890
  15       13.292648
  16       13.292650
  17       14.779133
  18       15.162117
  19       15.162120
  20       19.149885
 
  0.9090909E-01  0.9090909E-01  0.3742002E-15  0.4507889E-02
   1       -8.645486
   2       -3.980748
   3       -3.974030
   4       -3.974029
   5       -3.778726
   6       -3.773874
   7        1.921733
   8        2.568888
   9        2.568888
  10        4.775852
  11        6.889631
  12        7.617727
  13        7.617728
  14       10.692104
  15       11.180432
  16       12.426273
  17       13.625641
  18       13.625641
  19       14.224094
  20       17.134661
 
  0.1818182E+00  0.9090909E-01  0.3742002E-15  0.1803156E-01
   1       -8.528541
   2       -3.972087
   3       -3.961717
   4       -3.958493
   5       -3.781401
   6       -3.772653
   7        0.983321
   8        2.319137
   9        2.390558
  10        5.256104
  11        6.846804
  12        8.010041
  13        8.051616
  14       10.580698
  15       11.565509
  16       12.164758
  17       13.362962
  18       14.544957
  19       15.370800
  20       18.362081
 
  0.2727273E+00  0.9090909E-01  0.3742002E-15  0.1803156E-01
   1       -8.336283
   2       -3.956361
   3       -3.946400
   4       -3.917966
   5       -3.781327
   6       -3.771361
   7       -0.125005
   8        2.076594
   9        2.135350
  10        5.312836
  11        7.260377
  12        8.307539
  13        8.565837
  14       10.711438
  15       11.948916
  16       12.121128
  17       13.887663
  18       15.992095
  19       16.965749
  20       18.636904
 
  0.3636364E+00  0.9090909E-01  0.3742002E-15  0.1803156E-01
   1       -8.117618
   2       -3.942541
   3       -3.933911
   4       -3.835728
   5       -3.771511
   6       -3.769428
   7       -1.115592
   8        1.854373
   9        1.907333
  10        5.176723
  11        7.574896
  12        8.346763
  13        9.281465
  14       11.351758
  15       11.957164
  16       12.678416
  17       15.132318
  18       16.574295
  19       17.340516
  20       17.852680
 
  0.4545455E+00  0.9090909E-01  0.3742002E-15  0.1803156E-01
   1       -7.946274
   2       -3.933949
   3       -3.927518
   4       -3.783143
   5       -3.768506
   6       -3.688404
   7       -1.826978
   8        1.628978
   9        1.844955
  10        5.061353
  11        7.640730
  12        8.231164
  13       10.212900
  14       11.542317
  15       12.907025
  16       13.598856
  17       14.627400
  18       15.053626
  19       17.025273
  20       18.634010
 
 -0.4545455E+00  0.9090909E-01  0.3742002E-15  0.1803156E-01
   1       -7.896835
   2       -3.930736
   3       -3.927413
   4       -3.775075
   5       -3.770981
   6       -3.633373
   7       -2.038116
   8        1.504758
   9        1.898807
  10        5.027601
  11        7.705974
  12        8.111173
  13       10.596975
  14       11.920335
  15       13.094795
  16       13.187209
  17       14.616816
  18       15.428517
  19       15.869354
  20       19.422445
 
 -0.3636364E+00  0.9090909E-01  0.3742002E-15  0.1803156E-01
   1       -7.993996
   2       -3.933264
   3       -3.932563
   4       -3.780749
   5       -3.776315
   6       -3.727895
   7       -1.629659
   8        1.504941
   9        2.057927
  10        5.085378
  11        7.839218
  12        8.030766
  13       10.121497
  14       11.563673
  15       11.896037
  16       13.639090
  17       14.491014
  18       16.436095
  19       16.986926
  20       18.073903
 
 -0.2727273E+00  0.9090909E-01  0.3742002E-15  0.1803156E-01
   1       -8.190565
   2       -3.944862
   3       -3.940132
   4       -3.864374
   5       -3.780788
   6       -3.767861
   7       -0.806536
   8        1.638663
   9        2.290451
  10        5.209332
  11        7.923629
  12        7.924083
  13        9.081552
  14       11.064582
  15       11.575987
  16       12.726497
  17       14.691029
  18       16.659672
  19       17.145106
  20       18.269826
 
 -0.1818182E+00  0.9090909E-01  0.3742002E-15  0.1803156E-01
   1       -8.407415
   2       -3.959804
   3       -3.953316
   4       -3.935046
   5       -3.781558
   6       -3.772289
   7        0.226088
   8        1.905806
   9        2.538319
  10        5.284091
  11        7.549113
  12        7.692142
  13        8.438659
  14       10.816837
  15       11.491478
  16       12.175872
  17       13.631560
  18       15.245148
  19       16.863171
  20       18.642010
 
 -0.9090909E-01  0.9090909E-01  0.3742002E-15  0.9015778E-02
   1       -8.578261
   2       -3.972722
   3       -3.969441
   4       -3.965712
   5       -3.779219
   6       -3.774302
   7        1.261903
   8        2.308112
   9        2.713666
  10        5.007156
  11        7.181613
  12        7.434171
  13        7.956253
  14       11.137629
  15       11.179711
  16       11.720049
  17       13.611272
  18       13.902447
  19       15.397103
  20       17.741756
 
  0.1818182E+00  0.1818182E+00  0.3742002E-15  0.4507889E-02
   1       -8.446519
   2       -3.969764
   3       -3.948638
   4       -3.948638
   5       -3.785010
   6       -3.769453
   7        0.729695
   8        2.033006
   9        2.033006
  10        5.611121
  11        6.463555
  12        8.532074
  13        8.532075
  14        9.981461
  15       12.157107
  16       12.723306
  17       14.327878
  18       14.327879
  19       15.024564
  20       19.412307
 
  0.2727273E+00  0.1818182E+00  0.3742002E-15  0.1803156E-01
   1       -8.285288
   2       -3.954690
   3       -3.931732
   4       -3.923183
   5       -3.783776
   6       -3.767077
   7       -0.026663
   8        1.726494
   9        1.768271
  10        5.698402
  11        6.578876
  12        8.755681
  13        8.992246
  14       10.319310
  15       12.790078
  16       12.920135
  17       14.339118
  18       15.311902
  19       16.357010
  20       18.652857
 
  0.3636364E+00  0.1818182E+00  0.3742002E-15  0.1803156E-01
   1       -8.084300
   2       -3.938299
   3       -3.917324
   4       -3.868184
   5       -3.765633
   6       -3.765415
   7       -0.876415
   8        1.344737
   9        1.592509
  10        5.707855
  11        7.048771
  12        8.637154
  13        9.143016
  14       11.514752
  15       13.011753
  16       13.206880
  17       15.048781
  18       16.499055
  19       17.043105
  20       17.269468
 
  0.4545455E+00  0.1818182E+00  0.3742002E-15  0.1803156E-01
   1       -7.906274
   2       -3.928667
   3       -3.909605
   4       -3.813910
   5       -3.765875
   6       -3.692461
   7       -1.580339
   8        0.985080
   9        1.539769
  10        5.656649
  11        7.500409
  12        9.018661
  13        9.033330
  14       12.285418
  15       13.302609
  16       13.936135
  17       14.638862
  18       15.133256
  19       17.768277
  20       18.618139
 
 -0.4545455E+00  0.1818182E+00  0.3742002E-15  0.1803156E-01
   1       -7.822049
   2       -3.924474
   3       -3.909398
   4       -3.791068
   5       -3.770259
   6       -3.610008
   7       -1.923901
   8        0.734941
   9        1.618454
  10        5.654008
  11        7.642612
  12        8.810273
  13       10.023781
  14       11.885066
  15       13.044335
  16       13.264665
  17       15.087387
  18       15.790580
  19       17.739956
  20       19.172104
 
 -0.3636364E+00  0.1818182E+00  0.3742002E-15  0.1803156E-01
   1       -7.870741
   2       -3.923872
   3       -3.916219
   4       -3.785213
   5       -3.777462
   6       -3.659057
   7       -1.728319
   8        0.645728
   9        1.813801
  10        5.723268
  11        7.776339
  12        8.603039
  13       10.023435
  14       11.776517
  15       11.926110
  16       13.369424
  17       15.487757
  18       16.949428
  19       17.330438
  20       17.910424
 
 -0.2727273E+00  0.1818182E+00  0.3742002E-15  0.1803156E-01
   1       -8.028907
   2       -3.929342
   3       -3.927441
   4       -3.818288
   5       -3.783240
   6       -3.746607
   7       -1.124942
   8        0.768350
   9        2.085697
  10        5.815172
  11        7.964241
  12        8.351966
  13        8.912886
  14       10.897279
  15       12.587829
  16       13.984136
  17       14.525085
  18       15.718241
  19       17.605021
  20       18.961364
 
 -0.1818182E+00  0.1818182E+00  0.3742002E-15  0.9015778E-02
   1       -8.230179
   2       -3.945783
   3       -3.937363
   4       -3.892268
   5       -3.784445
   6       -3.765713
   7       -0.398441
   8        1.183283
   9        2.362092
  10        5.746425
  11        7.746148
  12        7.994437
  13        8.497155
  14       10.595177
  15       12.351233
  16       12.978446
  17       14.345347
  18       15.692562
  19       16.773115
  20       18.355010
 
  0.2727273E+00  0.2727273E+00  0.3742002E-15  0.4507889E-02
   1       -8.159916
   2       -3.943709
   3       -3.912481
   4       -3.912481
   5       -3.779055
   6       -3.763667
   7       -0.371702
   8        1.476976
   9        1.476976
  10        5.426098
  11        6.347721
  12        9.710364
  13        9.710365
  14       10.086154
  15       13.212400
  16       13.831601
  17       15.488286
  18       15.488287
  19       15.989132
  20       18.470162
 
  0.3636364E+00  0.2727273E+00  0.3742002E-15  0.1803156E-01
   1       -7.991274
   2       -3.927626
   3       -3.895504
   4       -3.883043
   5       -3.761509
   6       -3.752452
   7       -0.943092
   8        1.121455
   9        1.277465
  10        5.466773
  11        6.305877
  12        9.547886
  13       10.127154
  14       11.405393
  15       13.607630
  16       14.372966
  17       15.649174
  18       16.504762
  19       16.850171
  20       17.175328
 
  0.4545455E+00  0.2727273E+00  0.3742002E-15  0.1803156E-01
   1       -7.830542
   2       -3.918561
   3       -3.885995
   4       -3.843850
   5       -3.762225
   6       -3.679259
   7       -1.479252
   8        0.636135
   9        1.208918
  10        5.573006
  11        6.853281
  12        9.317432
  13       10.100556
  14       12.636242
  15       14.206726
  16       14.293343
  17       15.128757
  18       15.334411
  19       17.569750
  20       18.014593
 
 -0.4545455E+00  0.2727273E+00  0.3742002E-15  0.1803156E-01
   1       -7.737140
   2       -3.916068
   3       -3.885641
   4       -3.813560
   5       -3.767412
   6       -3.588664
   7       -1.800624
   8        0.220307
   9        1.283116
  10        5.642166
  11        7.750588
  12        9.383867
  13        9.839676
  14       11.967334
  15       13.164031
  16       14.657839
  17       15.334618
  18       16.109709
  19       18.723899
  20       19.375756
 
 -0.3636364E+00  0.2727273E+00  0.3742002E-15  0.1803156E-01
   1       -7.750228
   2       -3.916506
   3       -3.894210
   4       -3.795021
   5       -3.775399
   6       -3.588578
   7       -1.762754
   8        0.021037
   9        1.486915
  10        5.787318
  11        8.266999
  12        9.476392
  13        9.902676
  14       10.855117
  15       11.911893
  16       14.721515
  17       16.259257
  18       17.379856
  19       17.641102
  20       18.349079
 
 -0.2727273E+00  0.2727273E+00  0.3742002E-15  0.9015778E-02
   1       -7.863007
   2       -3.919501
   3       -3.910256
   4       -3.792138
   5       -3.781631
   6       -3.676709
   7       -1.456616
   8        0.173354
   9        1.779719
  10        5.945314
  11        8.338832
  12        8.964156
  13        9.101516
  14       11.126697
  15       11.895333
  16       14.854892
  17       15.012932
  18       16.228707
  19       18.780697
  20       19.109476
 
  0.3636364E+00  0.3636364E+00  0.3742002E-15  0.4507889E-02
   1       -7.863235
   2       -3.917532
   3       -3.875921
   4       -3.875921
   5       -3.758345
   6       -3.718696
   7       -1.296230
   8        1.047497
   9        1.047497
  10        5.158241
  11        5.842744
  12       10.989701
  13       10.989702
  14       11.236082
  15       13.868430
  16       15.304909
  17       16.612237
  18       16.612237
  19       17.082853
  20       17.082853
 
  0.4545455E+00  0.3636364E+00  0.3742002E-15  0.1803156E-01
   1       -7.740535
   2       -3.911345
   3       -3.864672
   4       -3.856394
   5       -3.757936
   6       -3.649617
   7       -1.658716
   8        0.718986
   9        0.949314
  10        5.278816
  11        5.848842
  12       10.781302
  13       11.281854
  14       12.564508
  15       14.362889
  16       14.833565
  17       15.435219
  18       16.386695
  19       17.303720
  20       17.718577
 
 -0.4545455E+00  0.3636364E+00  0.3742002E-15  0.1803156E-01
   1       -7.667707
   2       -3.909309
   3       -3.864256
   4       -3.834212
   5       -3.762260
   6       -3.569525
   7       -1.854860
   8        0.228877
   9        1.000348
  10        5.404130
  11        6.641871
  12       10.517923
  13       11.008432
  14       12.166315
  15       13.490843
  16       15.166381
  17       16.095836
  18       16.492422
  19       17.912950
  20       18.060834
 
 -0.3636364E+00  0.3636364E+00  0.3742002E-15  0.9015778E-02
   1       -7.672364
   2       -3.911497
   3       -3.874836
   4       -3.812193
   5       -3.769575
   6       -3.544595
   7       -1.838363
   8       -0.101598
   9        1.191784
  10        5.572797
  11        7.788076
  12       10.309158
  13       10.375372
  14       10.838936
  15       12.440729
  16       15.956968
  17       16.542265
  18       17.216509
  19       17.396529
  20       18.455906
 
  0.4545455E+00  0.4545455E+00  0.3742002E-15  0.4507889E-02
   1       -7.667464
   2       -3.910623
   3       -3.852473
   4       -3.852473
   5       -3.755188
   6       -3.605574
   7       -1.890353
   8        0.816462
   9        0.816462
  10        5.100550
  11        5.398190
  12       12.133551
  13       12.133553
  14       12.432166
  15       14.548477
  16       15.192648
  17       15.192648
  18       15.424211
  19       16.710346
  20       18.920743
 
 -0.4545455E+00  0.4545455E+00  0.3742002E-15  0.9015778E-02
   1       -7.639929
   2       -3.908777
   3       -3.852277
   4       -3.845876
   5       -3.756891
   6       -3.570914
   7       -1.958676
   8        0.578987
   9        0.834503
  10        5.238446
  11        5.639669
  12       11.723715
  13       11.975557
  14       12.611010
  15       14.119639
  16       14.803754
  17       15.491588
  18       16.163464
  19       16.945849
  20       18.667234
 
  0.2727273E+00  0.1818182E+00  0.9090909E-01  0.1803156E-01
   1       -8.389203
   2       -3.961024
   3       -3.946404
   4       -3.936931
   5       -3.783696
   6       -3.770001
   7        0.307839
   8        1.753026
   9        2.296030
  10        5.650505
  11        6.801999
  12        8.311592
  13        8.493717
  14       10.415079
  15       12.142959
  16       12.391759
  17       14.028317
  18       14.728877
  19       16.519906
  20       18.657849
 
  0.3636364E+00  0.1818182E+00  0.9090909E-01  0.3606311E-01
   1       -8.191432
   2       -3.944641
   3       -3.931851
   4       -3.885327
   5       -3.780869
   6       -3.765607
   7       -0.555279
   8        1.314223
   9        2.084106
  10        5.769189
  11        7.197980
  12        8.427711
  13        8.771379
  14       10.857718
  15       12.409113
  16       13.094464
  17       14.491045
  18       16.107416
  19       16.850131
  20       18.078512
 
  0.4545455E+00  0.1818182E+00  0.9090909E-01  0.3606311E-01
   1       -7.991038
   2       -3.931837
   3       -3.921990
   4       -3.812895
   5       -3.771841
   6       -3.734886
   7       -1.365059
   8        1.064586
   9        1.846267
  10        5.695868
  11        7.494737
  12        8.554486
  13        9.259795
  14       11.641676
  15       12.425867
  16       13.972104
  17       14.413678
  18       16.293763
  19       17.241937
  20       18.233006
 
 -0.4545455E+00  0.1818182E+00  0.9090909E-01  0.3606311E-01
   1       -7.861577
   2       -3.926096
   3       -3.916826
   4       -3.787113
   5       -3.771281
   6       -3.636217
   7       -1.889127
   8        0.956763
   9        1.695382
  10        5.630088
  11        7.482354
  12        8.615298
  13       10.193799
  14       11.751525
  15       12.895351
  16       13.392270
  17       14.710367
  18       15.918295
  19       17.411547
  20       18.724861
 
  0.3636364E+00  0.2727273E+00  0.9090909E-01  0.1803156E-01
   1       -8.119253
   2       -3.938548
   3       -3.915702
   4       -3.891713
   5       -3.774260
   6       -3.763192
   7       -0.596299
   8        1.198934
   9        1.634047
  10        5.822445
  11        6.596877
  12        8.685219
  13        9.616936
  14       10.925192
  15       13.195715
  16       13.691405
  17       14.823760
  18       15.973915
  19       16.898145
  20       17.540644
 
  0.4545455E+00  0.2727273E+00  0.9090909E-01  0.3606311E-01
   1       -7.936299
   2       -3.923872
   3       -3.904589
   4       -3.843752
   5       -3.766024
   6       -3.724741
   7       -1.217786
   8        0.770691
   9        1.423809
  10        5.985319
  11        7.013140
  12        8.452847
  13        9.948923
  14       11.796966
  15       13.572073
  16       14.276477
  17       14.733587
  18       16.058385
  19       17.012440
  20       17.892887
 
 -0.4545455E+00  0.2727273E+00  0.9090909E-01  0.3606311E-01
   1       -7.798731
   2       -3.917744
   3       -3.898249
   4       -3.810036
   5       -3.768903
   6       -3.630253
   7       -1.706305
   8        0.464652
   9        1.309782
  10        6.020844
  11        7.543709
  12        8.666301
  13        9.969123
  14       11.870141
  15       13.716832
  16       14.036160
  17       14.685611
  18       16.211950
  19       17.808309
  20       19.202583
 
 -0.3636364E+00  0.2727273E+00  0.9090909E-01  0.3606311E-01
   1       -7.763216
   2       -3.916346
   3       -3.899407
   4       -3.793619
   5       -3.775297
   6       -3.587613
   7       -1.842258
   8        0.295262
   9        1.369611
  10        6.090111
  11        7.633978
  12        9.095809
  13       10.288173
  14       10.843462
  15       13.126555
  16       14.061003
  17       15.141405
  18       17.305149
  19       18.063088
  20       18.394910
 
 -0.2727273E+00  0.2727273E+00  0.9090909E-01  0.3606311E-01
   1       -7.845566
   2       -3.917088
   3       -3.909172
   4       -3.800451
   5       -3.775077
   6       -3.663634
   7       -1.549089
   8        0.324605
   9        1.577744
  10        6.188098
  11        7.694907
  12        8.545826
  13        9.886965
  14       11.380891
  15       12.353623
  16       14.233642
  17       15.521306
  18       16.477813
  19       17.443975
  20       19.053284
 
 -0.1818182E+00  0.2727273E+00  0.9090909E-01  0.1803156E-01
   1       -8.009126
   2       -3.926922
   3       -3.920474
   4       -3.834040
   5       -3.776704
   6       -3.743637
   7       -1.044467
   8        0.649967
   9        1.857802
  10        6.165458
  11        7.486350
  12        8.154254
  13        9.365704
  14       11.005254
  15       13.104066
  16       14.029330
  17       14.910957
  18       15.257855
  19       17.500778
  20       18.712154
 
  0.4545455E+00  0.3636364E+00  0.9090909E-01  0.1803156E-01
   1       -7.843392
   2       -3.915276
   3       -3.884132
   4       -3.857885
   5       -3.760869
   6       -3.698901
   7       -1.367031
   8        0.793684
   9        1.060560
  10        5.625989
  11        6.205958
  12        9.535693
  13       10.962641
  14       11.988027
  15       14.290157
  16       14.445351
  17       15.769442
  18       16.199608
  19       16.753354
  20       17.579430
 
 -0.4545455E+00  0.3636364E+00  0.9090909E-01  0.3606311E-01
   1       -7.724725
   2       -3.909205
   3       -3.877956
   4       -3.831476
   5       -3.764483
   6       -3.610747
   7       -1.701801
   8        0.371424
   9        0.938919
  10        5.850236
  11        6.771540
  12        9.285192
  13       11.023713
  14       12.166460
  15       14.021492
  16       14.650428
  17       15.562055
  18       16.365300
  19       17.319531
  20       18.215736
 
 -0.3636364E+00  0.3636364E+00  0.9090909E-01  0.3606311E-01
   1       -7.680362
   2       -3.909244
   3       -3.879206
   4       -3.808907
   5       -3.772567
   6       -3.549903
   7       -1.824335
   8        0.010207
   9        1.022483
  10        5.977594
  11        7.773030
  12        9.187148
  13       10.272998
  14       11.466674
  15       13.252354
  16       15.290898
  17       15.689154
  18       17.245499
  19       17.852823
  20       18.661859
 
 -0.2727273E+00  0.3636364E+00  0.9090909E-01  0.1803156E-01
   1       -7.727403
   2       -3.911307
   3       -3.891312
   4       -3.795719
   5       -3.778849
   6       -3.581089
   7       -1.720451
   8       -0.055592
   9        1.260616
  10        6.157825
  11        8.254925
  12        8.744307
  13       10.326169
  14       10.828718
  15       12.274061
  16       15.645467
  17       15.835059
  18       16.822575
  19       17.795418
  20       18.496587
 
 -0.4545455E+00  0.4545455E+00  0.9090909E-01  0.1803156E-01
   1       -7.663744
   2       -3.907399
   3       -3.861123
   4       -3.841930
   5       -3.759338
   6       -3.584445
   7       -1.867607
   8        0.606055
   9        0.715764
  10        5.561504
  11        5.821316
  12       10.726821
  13       11.685506
  14       12.720418
  15       14.230455
  16       14.726625
  17       15.354102
  18       16.623238
  19       17.708110
  20       17.842226
 
 -0.3636364E+00  0.4545455E+00  0.9090909E-01  0.1803156E-01
   1       -7.641602
   2       -3.905829
   3       -3.865241
   4       -3.826886
   5       -3.765481
   6       -3.542557
   7       -1.895315
   8        0.216837
   9        0.771715
  10        5.775050
  11        6.653111
  12       10.448969
  13       10.465250
  14       12.524292
  15       13.714706
  16       15.020088
  17       15.774741
  18       17.591480
  19       17.769508
  20       18.285021
 
 -0.4545455E+00  0.3636364E+00  0.1818182E+00  0.1803156E-01
   1       -7.791621
   2       -3.909185
   3       -3.897382
   4       -3.819331
   5       -3.769700
   6       -3.645897
   7       -1.540697
   8        0.308000
   9        1.141525
  10        6.533478
  11        7.194218
  12        8.163198
  13       10.848554
  14       11.532729
  15       13.009390
  16       15.273051
  17       15.436792
  18       16.143334
  19       17.152318
  20       18.141295
 
 -0.3636364E+00  0.3636364E+00  0.1818182E+00  0.3606311E-01
   1       -7.701253
   2       -3.906517
   3       -3.887817
   4       -3.801111
   5       -3.778177
   6       -3.564662
   7       -1.771406
   8        0.089992
   9        0.926577
  10        6.698342
  11        7.599385
  12        8.443938
  13       10.198520
  14       11.490514
  15       13.567881
  16       14.994390
  17       15.377022
  18       17.237067
  19       17.610573
  20       18.528901
 
 -0.3636364E+00  0.4545455E+00  0.1818182E+00  0.1803156E-01
   1       -7.655080
   2       -3.903014
   3       -3.874665
   4       -3.815175
   5       -3.772622
   6       -3.544099
   7       -1.825225
   8        0.234024
   9        0.574457
  10        6.618149
  11        6.915409
  12        9.016760
  13       10.239324
  14       12.655193
  15       14.009378
  16       14.834661
  17       15.539187
  18       17.195183
  19       17.715860
  20       18.447501
 
 -0.2727273E+00  0.4545455E+00  0.1818182E+00  0.1803156E-01
   1       -7.646565
   2       -3.902860
   3       -3.876646
   4       -3.800006
   5       -3.782936
   6       -3.524856
   7       -1.827468
   8        0.058687
   9        0.599010
  10        6.836862
  11        7.758035
  12        8.701095
  13        9.280171
  14       12.606861
  15       13.810619
  16       14.957878
  17       15.718958
  18       17.226074
  19       17.690662
  20       19.077641
