       N       E                     dE             d eps       ncg     rms          rms(c)
DAV:   1     0.294263164485E+02    0.29426E+02   -0.91977E+03  2240   0.935E+02
DAV:   2    -0.493399599328E+01   -0.34360E+02   -0.33801E+02  2720   0.819E+01
DAV:   3    -0.551958458576E+01   -0.58559E+00   -0.58559E+00  2800   0.157E+01
DAV:   4    -0.552240269593E+01   -0.28181E-02   -0.28181E-02  3560   0.944E-01
DAV:   5    -0.552240679198E+01   -0.40960E-05   -0.40960E-05  2940   0.235E-02    0.201E+00
DAV:   6    -0.536420548608E+01    0.15820E+00   -0.91149E-01  2680   0.135E+01    0.104E+00
DAV:   7    -0.535106715553E+01    0.13138E-01   -0.55556E-02  3240   0.194E+00    0.502E-01
DAV:   8    -0.535015850345E+01    0.90865E-03   -0.92269E-03  2820   0.585E-01    0.151E-01
DAV:   9    -0.535044031501E+01   -0.28181E-03   -0.15335E-03  2740   0.200E-01    0.195E-02
DAV:  10    -0.535049561450E+01   -0.55299E-04   -0.12397E-04  3420   0.905E-02    0.882E-03
DAV:  11    -0.535050134879E+01   -0.57343E-05   -0.25541E-05  2480   0.317E-02    0.215E-03
DAV:  12    -0.535050177481E+01   -0.42603E-06   -0.92336E-07  3800   0.843E-03
   1 F= -.53505018E+01 E0= -.53505018E+01  d E =-.178329E-11
