 vasp.5.3.3 18Dez12 (build Dec 13 2014 13:36:02) complex                        
  
 executed on             LinuxIFC date 2018.11.28  13:03:35
 running on   20 total cores
 distrk:  each k-point on   20 cores,    1 groups
 distr:  one band on NCORES_PER_BAND=   1 cores,   20 groups


--------------------------------------------------------------------------------------------------------


 INCAR:
 POTCAR:   PAW_PBE Zn 06Sep2000                   
 POTCAR:   PAW_PBE Te 08Apr2002                   

 ----------------------------------------------------------------------------- 
|                                                                             |
|           W    W    AA    RRRRR   N    N  II  N    N   GGGG   !!!           |
|           W    W   A  A   R    R  NN   N  II  NN   N  G    G  !!!           |
|           W    W  A    A  R    R  N N  N  II  N N  N  G       !!!           |
|           W WW W  AAAAAA  RRRRR   N  N N  II  N  N N  G  GGG   !            |
|           WW  WW  A    A  R   R   N   NN  II  N   NN  G    G                |
|           W    W  A    A  R    R  N    N  II  N    N   GGGG   !!!           |
|                                                                             |
|      For optimal performance we recommend that you set                      |
|        NPAR = 4 - approx SQRT( number of cores)                             |
|      (number of cores/NPAR must be integer)                                 |
|      This setting will greatly improve the performance of VASP for DFT.     |
|      The default NPAR=number of cores might be grossly inefficient          |
|      on modern multi-core architectures or massively parallel machines.     |
|      Do your own testing.                                                   |
|      Unfortunately you need to use the default for hybrid, GW and RPA       |
|      calculations.                                                          |
|                                                                             |
 ----------------------------------------------------------------------------- 

 POTCAR:   PAW_PBE Zn 06Sep2000                   
   VRHFIN =Zn: d10 p2                                                           
   LEXCH  = PE                                                                  
   EATOM  =  1749.0928 eV,  128.5547 Ry                                         
                                                                                
   TITEL  = PAW_PBE Zn 06Sep2000                                                
   LULTRA =        F    use ultrasoft PP ?                                      
   IUNSCR =        1    unscreen: 0-lin 1-nonlin 2-no                           
   RPACOR =    2.000    partial core radius                                     
   POMASS =   65.390; ZVAL   =   12.000    mass and valenz                      
   RCORE  =    2.300    outmost cutoff radius                                   
   RWIGS  =    2.400; RWIGS  =    1.270    wigner-seitz radius (au A)           
   ENMAX  =  276.727; ENMIN  =  207.545 eV                                      
   RCLOC  =    1.828    cutoff for local pot                                    
   LCOR   =        T    correct aug charges                                     
   LPAW   =        T    paw PP                                                  
   EAUG   =  575.892                                                            
   DEXC   =    -.003                                                            
   RMAX   =    2.772    core radius for proj-oper                               
   RAUG   =    1.300    factor for augmentation sphere                          
   RDEP   =    2.324    radius for radial grids                                 
   QCUT   =   -4.510; QGAM   =    9.020    optimization parameters              
                                                                                
   Description                                                                  
     l     E      TYP  RCUT    TYP  RCUT                                        
     2   .000     23  2.300                                                     
     2   .000     23  2.300                                                     
     0   .000     23  2.300                                                     
     0   .000     23  2.300                                                     
     1  -.200     23  2.300                                                     
     1   .000     23  2.300                                                     
     3   .000      7   .000                                                     
  local pseudopotential read in
  partial core-charges read in
  atomic valenz-charges read in
  non local Contribution for L=           2  read in
    real space projection operators read in
  non local Contribution for L=           2  read in
    real space projection operators read in
  non local Contribution for L=           0  read in
    real space projection operators read in
  non local Contribution for L=           0  read in
    real space projection operators read in
  non local Contribution for L=           1  read in
    real space projection operators read in
  non local Contribution for L=           1  read in
    real space projection operators read in
    PAW grid and wavefunctions read in
 
   number of l-projection  operators is LMAX  =           6
   number of lm-projection operators is LMMAX =          18
 
 POTCAR:   PAW_PBE Te 08Apr2002                   
   VRHFIN =Te: s2p4                                                             
   LEXCH  = PE                                                                  
   EATOM  =   223.2721 eV,   16.4100 Ry                                         
                                                                                
   TITEL  = PAW_PBE Te 08Apr2002                                                
   LULTRA =        F    use ultrasoft PP ?                                      
   IUNSCR =        1    unscreen: 0-lin 1-nonlin 2-no                           
   RPACOR =    2.200    partial core radius                                     
   POMASS =  127.600; ZVAL   =    6.000    mass and valenz                      
   RCORE  =    2.300    outmost cutoff radius                                   
   RWIGS  =    2.900; RWIGS  =    1.535    wigner-seitz radius (au A)           
   ENMAX  =  174.982; ENMIN  =  131.236 eV                                      
   ICORE  =        3    local potential                                         
   LCOR   =        T    correct aug charges                                     
   LPAW   =        T    paw PP                                                  
   EAUG   =  368.792                                                            
   DEXC   =    -.169                                                            
   RMAX   =    3.486    core radius for proj-oper                               
   RAUG   =    1.300    factor for augmentation sphere                          
   RDEP   =    2.397    radius for radial grids                                 
   QCUT   =   -3.586; QGAM   =    7.172    optimization parameters              
                                                                                
   Description                                                                  
     l     E      TYP  RCUT    TYP  RCUT                                        
     0   .000     23  2.300                                                     
     0   .000     23  2.300                                                     
     1   .000     23  2.300                                                     
     1   .000     23  2.300                                                     
     2   .000     23  2.300                                                     
     3  -.100     23  2.300                                                     
  local pseudopotential read in
  partial core-charges read in
  atomic valenz-charges read in
  non local Contribution for L=           0  read in
    real space projection operators read in
  non local Contribution for L=           0  read in
    real space projection operators read in
  non local Contribution for L=           1  read in
    real space projection operators read in
  non local Contribution for L=           1  read in
    real space projection operators read in
  non local Contribution for L=           2  read in
    real space projection operators read in
    PAW grid and wavefunctions read in
 
   number of l-projection  operators is LMAX  =           5
   number of lm-projection operators is LMMAX =          13
 
 PAW_PBE Zn 06Sep2000                   :
 energy of atom  1       EATOM=-1749.0928
 kinetic energy error for atom=    0.0029 (will be added to EATOM!!)
 PAW_PBE Te 08Apr2002                   :
 energy of atom  2       EATOM= -223.2721
 kinetic energy error for atom=    0.0007 (will be added to EATOM!!)
 
 
 POSCAR: MP POSCAR:                              
  positions in direct lattice
  No initial velocities read in
 exchange correlation table for  LEXCH =        8
   RHO(1)=    0.500       N(1)  =     2000
   RHO(2)=  100.500       N(2)  =     4000
 


--------------------------------------------------------------------------------------------------------


 ion  position               nearest neighbor table
   1  0.000  0.000  0.000-   2 2.68   2 2.68   2 2.68   2 2.68
   2  0.250  0.250  0.250-   1 2.68   1 2.68   1 2.68   1 2.68
 
  LATTYP: Found a face centered cubic cell.
 ALAT       =     6.1848268414
  
  Lattice vectors:
  
 A1 = (   3.7874170000,   0.0000000000,   2.1866660000)
 A2 = (   1.2624720000,   3.5708110000,   2.1866660000)
 A3 = (   0.0000000000,   0.0000000000,   4.3733330000)


Analysis of symmetry for initial positions (statically):
=====================================================================
 Subroutine PRICEL returns:
 Original cell was already a primitive cell.
 

 Routine SETGRP: Setting up the symmetry group for a 
 face centered cubic supercell.


 Subroutine GETGRP returns: Found 24 space group operations
 (whereof 24 operations were pure point group operations)
 out of a pool of 48 trial point group operations.


The static configuration has the point symmetry T_d .


Analysis of symmetry for dynamics (positions and initial velocities):
=====================================================================
 Subroutine PRICEL returns:
 Original cell was already a primitive cell.
 

 Routine SETGRP: Setting up the symmetry group for a 
 face centered cubic supercell.


 Subroutine GETGRP returns: Found 24 space group operations
 (whereof 24 operations were pure point group operations)
 out of a pool of 48 trial point group operations.


The dynamic configuration has the point symmetry T_d .


 irot  :   1
 --------------------------------------------------------------------
 isymop:   1   0   0
           0   1   0
           0   0   1

 gtrans:     0.0000000     0.0000000     0.0000000

 ptrans:     0.0000000     0.0000000     0.0000000
 rotmap:
 (   1->   1)  (   2->   2) 


 irot  :   2
 --------------------------------------------------------------------
 isymop:   0   0   1
           1   0   0
           0   1   0

 gtrans:     0.0000000     0.0000000     0.0000000

 ptrans:     0.0000000     0.0000000     0.0000000
 rotmap:
 (   1->   1)  (   2->   2) 


 irot  :   3
 --------------------------------------------------------------------
 isymop:   0   1   0
           0   0   1
           1   0   0

 gtrans:     0.0000000     0.0000000     0.0000000

 ptrans:     0.0000000     0.0000000     0.0000000
 rotmap:
 (   1->   1)  (   2->   2) 


 irot  :   4
 --------------------------------------------------------------------
 isymop:  -1  -1  -1
           0   0   1
           1   0   0

 gtrans:     0.0000000     0.0000000     0.0000000

 ptrans:     0.0000000     0.0000000     0.0000000
 rotmap:
 (   1->   1)  (   2->   2) 


 irot  :   5
 --------------------------------------------------------------------
 isymop:  -1  -1  -1
           0   1   0
           0   0   1

 gtrans:     0.0000000     0.0000000     0.0000000

 ptrans:     0.0000000     0.0000000     0.0000000
 rotmap:
 (   1->   1)  (   2->   2) 


 irot  :   6
 --------------------------------------------------------------------
 isymop:  -1  -1  -1
           1   0   0
           0   1   0

 gtrans:     0.0000000     0.0000000     0.0000000

 ptrans:     0.0000000     0.0000000     0.0000000
 rotmap:
 (   1->   1)  (   2->   2) 


 irot  :   7
 --------------------------------------------------------------------
 isymop:   0   1   0
           1   0   0
          -1  -1  -1

 gtrans:     0.0000000     0.0000000     0.0000000

 ptrans:     0.0000000     0.0000000     0.0000000
 rotmap:
 (   1->   1)  (   2->   2) 


 irot  :   8
 --------------------------------------------------------------------
 isymop:   1   0   0
           0   0   1
          -1  -1  -1

 gtrans:     0.0000000     0.0000000     0.0000000

 ptrans:     0.0000000     0.0000000     0.0000000
 rotmap:
 (   1->   1)  (   2->   2) 


 irot  :   9
 --------------------------------------------------------------------
 isymop:   0   0   1
           0   1   0
          -1  -1  -1

 gtrans:     0.0000000     0.0000000     0.0000000

 ptrans:     0.0000000     0.0000000     0.0000000
 rotmap:
 (   1->   1)  (   2->   2) 


 irot  :  10
 --------------------------------------------------------------------
 isymop:   0   0   1
          -1  -1  -1
           0   1   0

 gtrans:     0.0000000     0.0000000     0.0000000

 ptrans:     0.0000000     0.0000000     0.0000000
 rotmap:
 (   1->   1)  (   2->   2) 


 irot  :  11
 --------------------------------------------------------------------
 isymop:   0   1   0
          -1  -1  -1
           1   0   0

 gtrans:     0.0000000     0.0000000     0.0000000

 ptrans:     0.0000000     0.0000000     0.0000000
 rotmap:
 (   1->   1)  (   2->   2) 


 irot  :  12
 --------------------------------------------------------------------
 isymop:   1   0   0
          -1  -1  -1
           0   0   1

 gtrans:     0.0000000     0.0000000     0.0000000

 ptrans:     0.0000000     0.0000000     0.0000000
 rotmap:
 (   1->   1)  (   2->   2) 


 irot  :  13
 --------------------------------------------------------------------
 isymop:  -1  -1  -1
           0   1   0
           1   0   0

 gtrans:     0.0000000     0.0000000     0.0000000

 ptrans:     0.0000000     0.0000000     0.0000000
 rotmap:
 (   1->   1)  (   2->   2) 


 irot  :  14
 --------------------------------------------------------------------
 isymop:  -1  -1  -1
           1   0   0
           0   0   1

 gtrans:     0.0000000     0.0000000     0.0000000

 ptrans:     0.0000000     0.0000000     0.0000000
 rotmap:
 (   1->   1)  (   2->   2) 


 irot  :  15
 --------------------------------------------------------------------
 isymop:  -1  -1  -1
           0   0   1
           0   1   0

 gtrans:     0.0000000     0.0000000     0.0000000

 ptrans:     0.0000000     0.0000000     0.0000000
 rotmap:
 (   1->   1)  (   2->   2) 


 irot  :  16
 --------------------------------------------------------------------
 isymop:   0   1   0
           0   0   1
          -1  -1  -1

 gtrans:     0.0000000     0.0000000     0.0000000

 ptrans:     0.0000000     0.0000000     0.0000000
 rotmap:
 (   1->   1)  (   2->   2) 


 irot  :  17
 --------------------------------------------------------------------
 isymop:   1   0   0
           0   1   0
          -1  -1  -1

 gtrans:     0.0000000     0.0000000     0.0000000

 ptrans:     0.0000000     0.0000000     0.0000000
 rotmap:
 (   1->   1)  (   2->   2) 


 irot  :  18
 --------------------------------------------------------------------
 isymop:   0   0   1
           1   0   0
          -1  -1  -1

 gtrans:     0.0000000     0.0000000     0.0000000

 ptrans:     0.0000000     0.0000000     0.0000000
 rotmap:
 (   1->   1)  (   2->   2) 


 irot  :  19
 --------------------------------------------------------------------
 isymop:   1   0   0
          -1  -1  -1
           0   1   0

 gtrans:     0.0000000     0.0000000     0.0000000

 ptrans:     0.0000000     0.0000000     0.0000000
 rotmap:
 (   1->   1)  (   2->   2) 


 irot  :  20
 --------------------------------------------------------------------
 isymop:   0   0   1
          -1  -1  -1
           1   0   0

 gtrans:     0.0000000     0.0000000     0.0000000

 ptrans:     0.0000000     0.0000000     0.0000000
 rotmap:
 (   1->   1)  (   2->   2) 


 irot  :  21
 --------------------------------------------------------------------
 isymop:   0   1   0
          -1  -1  -1
           0   0   1

 gtrans:     0.0000000     0.0000000     0.0000000

 ptrans:     0.0000000     0.0000000     0.0000000
 rotmap:
 (   1->   1)  (   2->   2) 


 irot  :  22
 --------------------------------------------------------------------
 isymop:   1   0   0
           0   0   1
           0   1   0

 gtrans:     0.0000000     0.0000000     0.0000000

 ptrans:     0.0000000     0.0000000     0.0000000
 rotmap:
 (   1->   1)  (   2->   2) 


 irot  :  23
 --------------------------------------------------------------------
 isymop:   0   1   0
           1   0   0
           0   0   1

 gtrans:     0.0000000     0.0000000     0.0000000

 ptrans:     0.0000000     0.0000000     0.0000000
 rotmap:
 (   1->   1)  (   2->   2) 


 irot  :  24
 --------------------------------------------------------------------
 isymop:   0   0   1
           0   1   0
           1   0   0

 gtrans:     0.0000000     0.0000000     0.0000000

 ptrans:     0.0000000     0.0000000     0.0000000
 rotmap:
 (   1->   1)  (   2->   2) 
 
 
 KPOINTS: k-points                                

Automatic generation of k-mesh.
Space group operators:
 irot       det(A)        alpha          n_x          n_y          n_z        tau_x        tau_y        tau_z
    1     1.000000     0.000000     1.000000     0.000000     0.000000     0.000000     0.000000     0.000000
    2     1.000000   120.000000    -0.471405    -0.333333    -0.816497     0.000000     0.000000     0.000000
    3     1.000000   120.000000     0.471404     0.333334     0.816497     0.000000     0.000000     0.000000
    4    -1.000000    90.000000    -0.816497    -0.577350     0.000000     0.000000     0.000000     0.000000
    5    -1.000000   180.000000     0.866025     0.000000     0.500000     0.000000     0.000000     0.000000
    6    -1.000000    90.000000     0.408248    -0.577350     0.707107     0.000000     0.000000     0.000000
    7     1.000000   180.000000     0.816497     0.577350     0.000000     0.000000     0.000000     0.000000
    8     1.000000   120.000000     0.942809    -0.333333     0.000000     0.000000     0.000000     0.000000
    9     1.000000   120.000000     0.000000    -1.000000    -0.000000     0.000000     0.000000     0.000000
   10    -1.000000    90.000000     0.816497     0.577350    -0.000000     0.000000     0.000000     0.000000
   11    -1.000000    90.000000     0.408248    -0.577350    -0.707107     0.000000     0.000000     0.000000
   12    -1.000000   179.999999     0.288675     0.816497     0.500000     0.000000     0.000000     0.000000
   13     1.000000   120.000000     0.000000     1.000000    -0.000000     0.000000     0.000000     0.000000
   14     1.000000   120.000000     0.471405     0.333333    -0.816497     0.000000     0.000000     0.000000
   15     1.000000   180.000000    -0.408248     0.577350     0.707107     0.000000     0.000000     0.000000
   16    -1.000000    90.000000    -0.408248     0.577350    -0.707107     0.000000     0.000000     0.000000
   17    -1.000000   180.000000     0.000000     0.000000     1.000000     0.000000     0.000000     0.000000
   18    -1.000000    90.000000    -0.408248     0.577350     0.707107     0.000000     0.000000     0.000000
   19     1.000000   120.000000    -0.942809     0.333333     0.000000     0.000000     0.000000     0.000000
   20     1.000000   180.000000    -0.408248     0.577350    -0.707107     0.000000     0.000000     0.000000
   21     1.000000   120.000000    -0.471404    -0.333333     0.816497     0.000000     0.000000     0.000000
   22    -1.000000   180.000000     0.288675     0.816497    -0.500000     0.000000     0.000000     0.000000
   23    -1.000000   180.000000     0.577350    -0.816497     0.000000     0.000000     0.000000     0.000000
   24    -1.000000   180.000000     0.866025     0.000000    -0.500000     0.000000     0.000000     0.000000
 
 Subroutine IBZKPT returns following result:
 ===========================================
 
 Found     56 irreducible k-points:
 
 Following reciprocal coordinates:
            Coordinates               Weight
  0.000000  0.000000  0.000000      1.000000
  0.090909  0.000000  0.000000      8.000000
  0.181818  0.000000  0.000000      8.000000
  0.272727  0.000000  0.000000      8.000000
  0.363636  0.000000  0.000000      8.000000
  0.454545  0.000000  0.000000      8.000000
  0.090909  0.090909  0.000000      6.000000
  0.181818  0.090909  0.000000     24.000000
  0.272727  0.090909  0.000000     24.000000
  0.363636  0.090909  0.000000     24.000000
  0.454545  0.090909  0.000000     24.000000
 -0.454545  0.090909  0.000000     24.000000
 -0.363636  0.090909  0.000000     24.000000
 -0.272727  0.090909  0.000000     24.000000
 -0.181818  0.090909  0.000000     24.000000
 -0.090909  0.090909  0.000000     12.000000
  0.181818  0.181818  0.000000      6.000000
  0.272727  0.181818  0.000000     24.000000
  0.363636  0.181818  0.000000     24.000000
  0.454545  0.181818  0.000000     24.000000
 -0.454545  0.181818  0.000000     24.000000
 -0.363636  0.181818  0.000000     24.000000
 -0.272727  0.181818  0.000000     24.000000
 -0.181818  0.181818  0.000000     12.000000
  0.272727  0.272727  0.000000      6.000000
  0.363636  0.272727  0.000000     24.000000
  0.454545  0.272727  0.000000     24.000000
 -0.454545  0.272727  0.000000     24.000000
 -0.363636  0.272727  0.000000     24.000000
 -0.272727  0.272727  0.000000     12.000000
  0.363636  0.363636  0.000000      6.000000
  0.454545  0.363636  0.000000     24.000000
 -0.454545  0.363636  0.000000     24.000000
 -0.363636  0.363636  0.000000     12.000000
  0.454545  0.454545  0.000000      6.000000
 -0.454545  0.454545  0.000000     12.000000
  0.272727  0.181818  0.090909     24.000000
  0.363636  0.181818  0.090909     48.000000
  0.454545  0.181818  0.090909     48.000000
 -0.454545  0.181818  0.090909     48.000000
  0.363636  0.272727  0.090909     24.000000
  0.454545  0.272727  0.090909     48.000000
 -0.454545  0.272727  0.090909     48.000000
 -0.363636  0.272727  0.090909     48.000000
 -0.272727  0.272727  0.090909     48.000000
 -0.181818  0.272727  0.090909     24.000000
  0.454545  0.363636  0.090909     24.000000
 -0.454545  0.363636  0.090909     48.000000
 -0.363636  0.363636  0.090909     48.000000
 -0.272727  0.363636  0.090909     24.000000
 -0.454545  0.454545  0.090909     24.000000
 -0.363636  0.454545  0.090909     24.000000
 -0.454545  0.363636  0.181818     24.000000
 -0.363636  0.363636  0.181818     48.000000
 -0.363636  0.454545  0.181818     24.000000
 -0.272727  0.454545  0.181818     24.000000
 
 Following cartesian coordinates:
            Coordinates               Weight
  0.000000  0.000000  0.000000      1.000000
  0.024003 -0.008486  0.000000      8.000000
  0.048006 -0.016973  0.000000      8.000000
  0.072009 -0.025459  0.000000      8.000000
  0.096012 -0.033945  0.000000      8.000000
  0.120015 -0.042432  0.000000      8.000000
  0.024003  0.016973  0.000000      6.000000
  0.048006  0.008486  0.000000     24.000000
  0.072009  0.000000  0.000000     24.000000
  0.096012 -0.008486  0.000000     24.000000
  0.120015 -0.016973  0.000000     24.000000
 -0.120015  0.067891  0.000000     24.000000
 -0.096012  0.059404  0.000000     24.000000
 -0.072009  0.050918  0.000000     24.000000
 -0.048006  0.042432  0.000000     24.000000
 -0.024003  0.033945  0.000000     12.000000
  0.048006  0.033945  0.000000      6.000000
  0.072009  0.025459  0.000000     24.000000
  0.096012  0.016973  0.000000     24.000000
  0.120015  0.008486  0.000000     24.000000
 -0.120015  0.093349  0.000000     24.000000
 -0.096012  0.084863  0.000000     24.000000
 -0.072009  0.076377  0.000000     24.000000
 -0.048006  0.067891  0.000000     12.000000
  0.072009  0.050918  0.000000      6.000000
  0.096012  0.042432  0.000000     24.000000
  0.120015  0.033945  0.000000     24.000000
 -0.120015  0.118808  0.000000     24.000000
 -0.096012  0.110322  0.000000     24.000000
 -0.072009  0.101836  0.000000     12.000000
  0.096012  0.067891  0.000000      6.000000
  0.120015  0.059404  0.000000     24.000000
 -0.120015  0.144267  0.000000     24.000000
 -0.096012  0.135781  0.000000     12.000000
  0.120015  0.084863  0.000000      6.000000
 -0.120015  0.169726  0.000000     12.000000
  0.060007  0.016973  0.020787     24.000000
  0.084010  0.008486  0.020787     48.000000
  0.108013  0.000000  0.020787     48.000000
 -0.132016  0.084863  0.020787     48.000000
  0.084010  0.033945  0.020787     24.000000
  0.108013  0.025459  0.020787     48.000000
 -0.132016  0.110322  0.020787     48.000000
 -0.108013  0.101836  0.020787     48.000000
 -0.084010  0.093349  0.020787     48.000000
 -0.060007  0.084863  0.020787     24.000000
  0.108013  0.050918  0.020787     24.000000
 -0.132016  0.135781  0.020787     48.000000
 -0.108013  0.127295  0.020787     48.000000
 -0.084010  0.118808  0.020787     24.000000
 -0.132016  0.161240  0.020787     24.000000
 -0.108013  0.152754  0.020787     24.000000
 -0.144018  0.127295  0.041574     24.000000
 -0.120015  0.118808  0.041574     48.000000
 -0.120015  0.144267  0.041574     24.000000
 -0.096012  0.135781  0.041574     24.000000
 


--------------------------------------------------------------------------------------------------------




 Dimension of arrays:
   k-points           NKPTS =     56   k-points in BZ     NKDIM =     56   number of bands    NBANDS=     20
   number of dos      NEDOS =   5000   number of ions     NIONS =      2
   non local maximal  LDIM  =      6   non local SUM 2l+1 LMDIM =     18
   total plane-waves  NPLWV =  46656
   max r-space proj   IRMAX =      1   max aug-charges    IRDMAX=  46075
   dimension x,y,z NGX =    36 NGY =   36 NGZ =   36
   dimension x,y,z NGXF=    72 NGYF=   72 NGZF=   72
   support grid    NGXF=    72 NGYF=   72 NGZF=   72
   ions per type =               1   1
 NGX,Y,Z   is equivalent  to a cutoff of  13.68, 13.68, 13.68 a.u.
 NGXF,Y,Z  is equivalent  to a cutoff of  27.37, 27.37, 27.37 a.u.


 I would recommend the setting:
   dimension x,y,z NGX =    33 NGY =   33 NGZ =   33
 SYSTEM =                                          
 POSCAR =  MP POSCAR:                              

 Startparameter for this run:
   NWRITE =      2    write-flag & timer
   PREC   = accura    normal or accurate (medium, high low for compatibility)
   ISTART =      0    job   : 0-new  1-cont  2-samecut
   ICHARG =      2    charge: 1-file 2-atom 10-const
   ISPIN  =      1    spin polarized calculation?
   LNONCOLLINEAR =      F non collinear calculations
   LSORBIT =      F    spin-orbit coupling
   INIWAV =      1    electr: 0-lowe 1-rand  2-diag
   LASPH  =      F    aspherical Exc in radial PAW
   METAGGA=      F    non-selfconsistent MetaGGA calc.

 Electronic Relaxation 1
   ENCUT  =  520.0 eV  38.22 Ry    6.18 a.u.   8.13  8.13  8.13*2*pi/ulx,y,z
   ENINI  =  520.0     initial cutoff
   ENAUG  =  575.9 eV  augmentation charge cutoff
   NELM   =     60;   NELMIN=  2; NELMDL= -5     # of ELM steps 
   EDIFF  = 0.1E-05   stopping-criterion for ELM
   LREAL  =      F    real-space projection
   NLSPLINE    = F    spline interpolate recip. space projectors
   LCOMPAT=      F    compatible to vasp.4.4
   GGA_COMPAT  = T    GGA compatible to vasp.4.4-vasp.4.6
   LMAXPAW     = -100 max onsite density
   LMAXMIX     =    2 max onsite mixed and CHGCAR
   VOSKOWN=      0    Vosko Wilk Nusair interpolation
   ROPT   =    0.00000   0.00000
 Ionic relaxation
   EDIFFG = 0.1E-04   stopping-criterion for IOM
   NSW    =      0    number of steps for IOM
   NBLOCK =      1;   KBLOCK =      1    inner block; outer block 
   IBRION =     -1    ionic relax: 0-MD 1-quasi-New 2-CG
   NFREE  =      0    steps in history (QN), initial steepest desc. (CG)
   ISIF   =      3    stress and relaxation
   IWAVPR =     10    prediction:  0-non 1-charg 2-wave 3-comb
   ISYM   =      1    0-nonsym 1-usesym 2-fastsym
   LCORR  =      T    Harris-Foulkes like correction to forces

   POTIM  = 0.5000    time-step for ionic-motion
   TEIN   =    0.0    initial temperature
   TEBEG  =    0.0;   TEEND  =   0.0 temperature during run
   SMASS  =  -3.00    Nose mass-parameter (am)
   estimated Nose-frequenzy (Omega)   =  0.10E-29 period in steps =****** mass=  -0.437E-27a.u.
   SCALEE = 1.0000    scale energy and forces
   NPACO  =    256;   APACO  = 16.0  distance and # of slots for P.C.
   PSTRESS=    0.0 pullay stress

  Mass of Ions in am
   POMASS =  65.39127.60
  Ionic Valenz
   ZVAL   =  12.00  6.00
  Atomic Wigner-Seitz radii
   RWIGS  =  -1.00 -1.00
  virtual crystal weights 
   VCA    =   1.00  1.00
   NELECT =      18.0000    total number of electrons
   NUPDOWN=      -1.0000    fix difference up-down

 DOS related values:
   EMIN   = -20.00;   EMAX   = 20.00  energy-range for DOS
   EFERMI =   0.00
   ISMEAR =     0;   SIGMA  =   0.01  broadening in eV -4-tet -1-fermi 0-gaus

 Electronic relaxation 2 (details)
   IALGO  =     38    algorithm
   LDIAG  =      T    sub-space diagonalisation (order eigenvalues)
   LSUBROT=      T    optimize rotation matrix (better conditioning)
   TURBO    =      0    0=normal 1=particle mesh
   IRESTART =      0    0=no restart 2=restart with 2 vectors
   NREBOOT  =      0    no. of reboots
   NMIN     =      0    reboot dimension
   EREF     =   0.00    reference energy to select bands
   IMIX   =      4    mixing-type and parameters
     AMIX     =   0.40;   BMIX     =  1.00
     AMIX_MAG =   1.60;   BMIX_MAG =  1.00
     AMIN     =   0.10
     WC   =   100.;   INIMIX=   1;  MIXPRE=   1;  MAXMIX= -45

 Intra band minimization:
   WEIMIN = 0.0000     energy-eigenvalue tresh-hold
   EBREAK =  0.12E-07  absolut break condition
   DEPER  =   0.30     relativ break condition  

   TIME   =   0.40     timestep for ELM

  volume/ion in A,a.u.               =      29.57       199.57
  Fermi-wavevector in a.u.,A,eV,Ry     =   1.101180  2.080928 16.498377  1.212596
  Thomas-Fermi vector in A             =   2.237603
 
 Write flags
   LWAVE  =      T    write WAVECAR
   LCHARG =      T    write CHGCAR
   LVTOT  =      F    write LOCPOT, total local potential
   LVHAR  =      F    write LOCPOT, Hartree potential only
   LELF   =      F    write electronic localiz. function (ELF)
   LORBIT =      0    0 simple, 1 ext, 2 COOP (PROOUT)


 Dipole corrections
   LMONO  =      F    monopole corrections only (constant potential shift)
   LDIPOL =      F    correct potential (dipole corrections)
   IDIPOL =      0    1-x, 2-y, 3-z, 4-all directions 
   EPSILON=  1.0000000 bulk dielectric constant

 Exchange correlation treatment:
   GGA     =    --    GGA type
   LEXCH   =     8    internal setting for exchange type
   VOSKOWN=      0    Vosko Wilk Nusair interpolation
   LHFCALC =     F    Hartree Fock is set to
   LHFONE  =     F    Hartree Fock one center treatment
   AEXX    =    0.0000 exact exchange contribution

 Linear response parameters
   LEPSILON=     F    determine dielectric tensor
   LRPA    =     F    only Hartree local field effects (RPA)
   LNABLA  =     F    use nabla operator in PAW spheres
   LVEL    =     F    velocity operator in full k-point grid
   LINTERFAST=   F  fast interpolation
   KINTER  =     0    interpolate to denser k-point grid
   CSHIFT  =0.1000    complex shift for real part using Kramers Kronig
   OMEGAMAX=  -1.0    maximum frequency
   DEG_THRESHOLD= 0.2000000E-02 threshold for treating states as degnerate
   RTIME   =    0.100 relaxation time in fs

 Orbital magnetization related:
   ORBITALMAG=     F  switch on orbital magnetization
   LCHIMAG   =     F  perturbation theory with respect to B field
   DQ        =  0.001000  dq finite difference perturbation B field



--------------------------------------------------------------------------------------------------------


 Static calculation
 charge density and potential will be updated during run
 non-spin polarized calculation
 Variant of blocked Davidson
 Davidson routine will perform the subspace rotation
 perform sub-space diagonalisation
    after iterative eigenvector-optimisation
 modified Broyden-mixing scheme, WC =      100.0
 initial mixing is a Kerker type mixing with AMIX =  0.4000 and BMIX =      1.0000
 Hartree-type preconditioning will be used
 using additional bands           11
 reciprocal scheme for non local part
 use partial core corrections
 calculate Harris-corrections to forces 
   (improved forces if not selfconsistent)
 use gradient corrections 
 use of overlap-Matrix (Vanderbilt PP)
 Gauss-broadening in eV      SIGMA  =   0.01


--------------------------------------------------------------------------------------------------------


  energy-cutoff  :      520.00
  volume of cell :       59.15
      direct lattice vectors                 reciprocal lattice vectors
     3.787417000  0.000000000  2.186666000     0.264032189 -0.093349451  0.000000000
     1.262472000  3.570811000  2.186666000     0.000000000  0.280048426  0.000000000
     0.000000000  0.000000000  4.373333000    -0.132016064 -0.093349466  0.228658554

  length of vectors
     4.373332337  4.373332247  4.373333000     0.280048418  0.280048426  0.280048386


 
 k-points in units of 2pi/SCALE and weight: k-points                                
   0.00000000  0.00000000  0.00000000       0.001
   0.02400293 -0.00848631  0.00000000       0.006
   0.04800585 -0.01697263  0.00000000       0.006
   0.07200878 -0.02545894  0.00000000       0.006
   0.09601170 -0.03394525  0.00000000       0.006
   0.12001463 -0.04243157  0.00000000       0.006
   0.02400293  0.01697263  0.00000000       0.005
   0.04800585  0.00848632  0.00000000       0.018
   0.07200878  0.00000001  0.00000000       0.018
   0.09601170 -0.00848631  0.00000000       0.018
   0.12001463 -0.01697262  0.00000000       0.018
  -0.12001463  0.06789052  0.00000000       0.018
  -0.09601170  0.05940420  0.00000000       0.018
  -0.07200878  0.05091789  0.00000000       0.018
  -0.04800585  0.04243158  0.00000000       0.018
  -0.02400293  0.03394526  0.00000000       0.009
   0.04800585  0.03394527  0.00000000       0.005
   0.07200878  0.02545895  0.00000000       0.018
   0.09601170  0.01697264  0.00000000       0.018
   0.12001463  0.00848633  0.00000000       0.018
  -0.12001463  0.09334946  0.00000000       0.018
  -0.09601170  0.08486315  0.00000000       0.018
  -0.07200878  0.07637684  0.00000000       0.018
  -0.04800585  0.06789052  0.00000000       0.009
   0.07200878  0.05091790  0.00000000       0.005
   0.09601170  0.04243159  0.00000000       0.018
   0.12001463  0.03394527  0.00000000       0.018
  -0.12001463  0.11880841  0.00000000       0.018
  -0.09601170  0.11032210  0.00000000       0.018
  -0.07200878  0.10183578  0.00000000       0.009
   0.09601170  0.06789054  0.00000000       0.005
   0.12001463  0.05940422  0.00000000       0.018
  -0.12001463  0.14426736  0.00000000       0.018
  -0.09601170  0.13578105  0.00000000       0.009
   0.12001463  0.08486317  0.00000000       0.005
  -0.12001463  0.16972631  0.00000000       0.009
   0.06000732  0.01697264  0.02078714       0.018
   0.08401024  0.00848633  0.02078714       0.036
   0.10801317  0.00000001  0.02078714       0.036
  -0.13201609  0.08486315  0.02078714       0.036
   0.08401024  0.03394527  0.02078714       0.018
   0.10801317  0.02545896  0.02078714       0.036
  -0.13201609  0.11032210  0.02078714       0.036
  -0.10801317  0.10183578  0.02078714       0.036
  -0.08401024  0.09334947  0.02078714       0.036
  -0.06000731  0.08486316  0.02078714       0.018
   0.10801317  0.05091791  0.02078714       0.018
  -0.13201609  0.13578104  0.02078714       0.036
  -0.10801317  0.12729473  0.02078714       0.036
  -0.08401024  0.11880842  0.02078714       0.018
  -0.13201609  0.16123999  0.02078714       0.018
  -0.10801317  0.15275368  0.02078714       0.018
  -0.14401755  0.12729473  0.04157428       0.018
  -0.12001463  0.11880842  0.04157428       0.036
  -0.12001463  0.14426736  0.04157428       0.018
  -0.09601170  0.13578105  0.04157428       0.018
 
 k-points in reciprocal lattice and weights: k-points                                
   0.00000000  0.00000000  0.00000000       0.001
   0.09090909  0.00000000  0.00000000       0.006
   0.18181818  0.00000000  0.00000000       0.006
   0.27272727  0.00000000  0.00000000       0.006
   0.36363636  0.00000000  0.00000000       0.006
   0.45454545  0.00000000  0.00000000       0.006
   0.09090909  0.09090909  0.00000000       0.005
   0.18181818  0.09090909  0.00000000       0.018
   0.27272727  0.09090909  0.00000000       0.018
   0.36363636  0.09090909  0.00000000       0.018
   0.45454545  0.09090909  0.00000000       0.018
  -0.45454545  0.09090909  0.00000000       0.018
  -0.36363636  0.09090909  0.00000000       0.018
  -0.27272727  0.09090909  0.00000000       0.018
  -0.18181818  0.09090909  0.00000000       0.018
  -0.09090909  0.09090909  0.00000000       0.009
   0.18181818  0.18181818  0.00000000       0.005
   0.27272727  0.18181818  0.00000000       0.018
   0.36363636  0.18181818  0.00000000       0.018
   0.45454545  0.18181818  0.00000000       0.018
  -0.45454545  0.18181818  0.00000000       0.018
  -0.36363636  0.18181818  0.00000000       0.018
  -0.27272727  0.18181818  0.00000000       0.018
  -0.18181818  0.18181818  0.00000000       0.009
   0.27272727  0.27272727  0.00000000       0.005
   0.36363636  0.27272727  0.00000000       0.018
   0.45454545  0.27272727  0.00000000       0.018
  -0.45454545  0.27272727  0.00000000       0.018
  -0.36363636  0.27272727  0.00000000       0.018
  -0.27272727  0.27272727  0.00000000       0.009
   0.36363636  0.36363636  0.00000000       0.005
   0.45454545  0.36363636  0.00000000       0.018
  -0.45454545  0.36363636  0.00000000       0.018
  -0.36363636  0.36363636  0.00000000       0.009
   0.45454545  0.45454545  0.00000000       0.005
  -0.45454545  0.45454545  0.00000000       0.009
   0.27272727  0.18181818  0.09090909       0.018
   0.36363636  0.18181818  0.09090909       0.036
   0.45454545  0.18181818  0.09090909       0.036
  -0.45454545  0.18181818  0.09090909       0.036
   0.36363636  0.27272727  0.09090909       0.018
   0.45454545  0.27272727  0.09090909       0.036
  -0.45454545  0.27272727  0.09090909       0.036
  -0.36363636  0.27272727  0.09090909       0.036
  -0.27272727  0.27272727  0.09090909       0.036
  -0.18181818  0.27272727  0.09090909       0.018
   0.45454545  0.36363636  0.09090909       0.018
  -0.45454545  0.36363636  0.09090909       0.036
  -0.36363636  0.36363636  0.09090909       0.036
  -0.27272727  0.36363636  0.09090909       0.018
  -0.45454545  0.45454545  0.09090909       0.018
  -0.36363636  0.45454545  0.09090909       0.018
  -0.45454545  0.36363636  0.18181818       0.018
  -0.36363636  0.36363636  0.18181818       0.036
  -0.36363636  0.45454545  0.18181818       0.018
  -0.27272727  0.45454545  0.18181818       0.018
 
 position of ions in fractional coordinates (direct lattice) 
   0.00000000  0.00000000  0.00000000
   0.25000000  0.25000000  0.25000000
 
 position of ions in cartesian coordinates  (Angst):
   0.00000000  0.00000000  0.00000000
   1.26247225  0.89270275  2.18666625
 


--------------------------------------------------------------------------------------------------------


 k-point  1 :   0.0000 0.0000 0.0000  plane waves:    1639
 k-point  2 :   0.0909 0.0000 0.0000  plane waves:    1570
 k-point  3 :   0.1818 0.0000 0.0000  plane waves:    1582
 k-point  4 :   0.2727 0.0000 0.0000  plane waves:    1594
 k-point  5 :   0.3636 0.0000 0.0000  plane waves:    1607
 k-point  6 :   0.4545 0.0000 0.0000  plane waves:    1586
 k-point  7 :   0.0909 0.0909 0.0000  plane waves:    1579
 k-point  8 :   0.1818 0.0909 0.0000  plane waves:    1577
 k-point  9 :   0.2727 0.0909 0.0000  plane waves:    1588
 k-point 10 :   0.3636 0.0909 0.0000  plane waves:    1590
 k-point 11 :   0.4545 0.0909 0.0000  plane waves:    1589
 k-point 12 :  -0.4545 0.0909 0.0000  plane waves:    1589
 k-point 13 :  -0.3636 0.0909 0.0000  plane waves:    1594
 k-point 14 :  -0.2727 0.0909 0.0000  plane waves:    1583
 k-point 15 :  -0.1818 0.0909 0.0000  plane waves:    1588
 k-point 16 :  -0.0909 0.0909 0.0000  plane waves:    1576
 k-point 17 :   0.1818 0.1818 0.0000  plane waves:    1591
 k-point 18 :   0.2727 0.1818 0.0000  plane waves:    1591
 k-point 19 :   0.3636 0.1818 0.0000  plane waves:    1596
 k-point 20 :   0.4545 0.1818 0.0000  plane waves:    1603
 k-point 21 :  -0.4545 0.1818 0.0000  plane waves:    1585
 k-point 22 :  -0.3636 0.1818 0.0000  plane waves:    1590
 k-point 23 :  -0.2727 0.1818 0.0000  plane waves:    1583
 k-point 24 :  -0.1818 0.1818 0.0000  plane waves:    1586
 k-point 25 :   0.2727 0.2727 0.0000  plane waves:    1596
 k-point 26 :   0.3636 0.2727 0.0000  plane waves:    1591
 k-point 27 :   0.4545 0.2727 0.0000  plane waves:    1600
 k-point 28 :  -0.4545 0.2727 0.0000  plane waves:    1597
 k-point 29 :  -0.3636 0.2727 0.0000  plane waves:    1589
 k-point 30 :  -0.2727 0.2727 0.0000  plane waves:    1592
 k-point 31 :   0.3636 0.3636 0.0000  plane waves:    1600
 k-point 32 :   0.4545 0.3636 0.0000  plane waves:    1600
 k-point 33 :  -0.4545 0.3636 0.0000  plane waves:    1603
 k-point 34 :  -0.3636 0.3636 0.0000  plane waves:    1592
 k-point 35 :   0.4545 0.4545 0.0000  plane waves:    1604
 k-point 36 :  -0.4545 0.4545 0.0000  plane waves:    1598
 k-point 37 :   0.2727 0.1818 0.0909  plane waves:    1583
 k-point 38 :   0.3636 0.1818 0.0909  plane waves:    1589
 k-point 39 :   0.4545 0.1818 0.0909  plane waves:    1598
 k-point 40 :  -0.4545 0.1818 0.0909  plane waves:    1585
 k-point 41 :   0.3636 0.2727 0.0909  plane waves:    1591
 k-point 42 :   0.4545 0.2727 0.0909  plane waves:    1599
 k-point 43 :  -0.4545 0.2727 0.0909  plane waves:    1592
 k-point 44 :  -0.3636 0.2727 0.0909  plane waves:    1589
 k-point 45 :  -0.2727 0.2727 0.0909  plane waves:    1591
 k-point 46 :  -0.1818 0.2727 0.0909  plane waves:    1588
 k-point 47 :   0.4545 0.3636 0.0909  plane waves:    1603
 k-point 48 :  -0.4545 0.3636 0.0909  plane waves:    1592
 k-point 49 :  -0.3636 0.3636 0.0909  plane waves:    1594
 k-point 50 :  -0.2727 0.3636 0.0909  plane waves:    1594
 k-point 51 :  -0.4545 0.4545 0.0909  plane waves:    1600
 k-point 52 :  -0.3636 0.4545 0.0909  plane waves:    1607
 k-point 53 :  -0.4545 0.3636 0.1818  plane waves:    1589
 k-point 54 :  -0.3636 0.3636 0.1818  plane waves:    1593
 k-point 55 :  -0.3636 0.4545 0.1818  plane waves:    1600
 k-point 56 :  -0.2727 0.4545 0.1818  plane waves:    1598

 maximum and minimum number of plane-waves per node :      1639     1570

 maximum number of plane-waves:      1639
 maximum index in each direction: 
   IXMAX=    8   IYMAX=    8   IZMAX=    8
   IXMIN=   -8   IYMIN=   -8   IZMIN=   -8

 NGX is ok and might be reduce to  34
 NGY is ok and might be reduce to  34
 NGZ is ok and might be reduce to  34

 serial   3D FFT for wavefunctions
 parallel 3D FFT for charge:
    minimum data exchange during FFTs selected (reduces bandwidth)


 total amount of memory used by VASP on root node    62002. kBytes
========================================================================

   base      :      30000. kBytes
   nonl-proj :      26502. kBytes
   fftplans  :        893. kBytes
   grid      :       3071. kBytes
   one-center:         31. kBytes
   wavefun   :       1505. kBytes
 
 Broyden mixing: mesh for mixing (old mesh)
   NGX = 17   NGY = 17   NGZ = 17
  (NGX  = 72   NGY  = 72   NGZ  = 72)
  gives a total of   4913 points

 initial charge density was supplied:
 charge density of overlapping atoms calculated
 number of electron      18.0000000 magnetization 
 keeping initial charge density in first step


--------------------------------------------------------------------------------------------------------


 Maximum index for augmentation-charges         2200 (set IRDMAX)


--------------------------------------------------------------------------------------------------------


 First call to EWALD:  gamma=   0.455
 Maximum number of real-space cells 3x 3x 3
 Maximum number of reciprocal cells 3x 3x 3

 FEWALD executed in parallel
    FEWALD:  cpu time    0.00: real time    0.00


----------------------------------------- Iteration    1(   1)  ---------------------------------------


    POTLOK:  cpu time    0.04: real time    0.05
    SETDIJ:  cpu time    0.01: real time    0.01
     EDDAV:  cpu time    0.86: real time    0.87
       DOS:  cpu time    0.00: real time    0.00
    --------------------------------------------
      LOOP:  cpu time    0.95: real time    0.96

 eigenvalue-minimisations  :  2240
 total energy-change (2. order) : 0.2942632E+02  (-0.9197668E+03)
 number of electron      18.0000000 magnetization 
 augmentation part       18.0000000 magnetization 

 Free energy of the ion-electron system (eV)
  ---------------------------------------------------
  alpha Z        PSCENC =        41.44870044
  Ewald energy   TEWEN  =     -1095.15256513
  -1/2 Hartree   DENC   =      -770.56142288
  -exchange  EXHF       =         0.00000000
  -V(xc)+E(xc)   XCENC  =        28.71037720
  PAW double counting   =      1425.90876659    -1564.99561147
  entropy T*S    EENTRO =        -0.00011740
  eigenvalues    EBANDS =        -8.29314035
  atomic energy  EATOM  =      1972.36132945
  ---------------------------------------------------
  free energy    TOTEN  =        29.42631645 eV

  energy without entropy =       29.42643385  energy(sigma->0) =       29.42637515


--------------------------------------------------------------------------------------------------------




----------------------------------------- Iteration    1(   2)  ---------------------------------------


     EDDAV:  cpu time    1.01: real time    1.01
       DOS:  cpu time    0.00: real time    0.00
    --------------------------------------------
      LOOP:  cpu time    1.01: real time    1.01

 eigenvalue-minimisations  :  2720
 total energy-change (2. order) :-0.3436031E+02  (-0.3380070E+02)
 number of electron      18.0000000 magnetization 
 augmentation part       18.0000000 magnetization 

 Free energy of the ion-electron system (eV)
  ---------------------------------------------------
  alpha Z        PSCENC =        41.44870044
  Ewald energy   TEWEN  =     -1095.15256513
  -1/2 Hartree   DENC   =      -770.56142288
  -exchange  EXHF       =         0.00000000
  -V(xc)+E(xc)   XCENC  =        28.71037720
  PAW double counting   =      1425.90876659    -1564.99561147
  entropy T*S    EENTRO =        -0.00000000
  eigenvalues    EBANDS =       -42.65357019
  atomic energy  EATOM  =      1972.36132945
  ---------------------------------------------------
  free energy    TOTEN  =        -4.93399599 eV

  energy without entropy =       -4.93399599  energy(sigma->0) =       -4.93399599


--------------------------------------------------------------------------------------------------------




----------------------------------------- Iteration    1(   3)  ---------------------------------------


     EDDAV:  cpu time    1.04: real time    1.04
       DOS:  cpu time    0.00: real time    0.00
    --------------------------------------------
      LOOP:  cpu time    1.05: real time    1.05

 eigenvalue-minimisations  :  2800
 total energy-change (2. order) :-0.5855886E+00  (-0.5855886E+00)
 number of electron      18.0000000 magnetization 
 augmentation part       18.0000000 magnetization 

 Free energy of the ion-electron system (eV)
  ---------------------------------------------------
  alpha Z        PSCENC =        41.44870044
  Ewald energy   TEWEN  =     -1095.15256513
  -1/2 Hartree   DENC   =      -770.56142288
  -exchange  EXHF       =         0.00000000
  -V(xc)+E(xc)   XCENC  =        28.71037720
  PAW double counting   =      1425.90876659    -1564.99561147
  entropy T*S    EENTRO =        -0.00000000
  eigenvalues    EBANDS =       -43.23915879
  atomic energy  EATOM  =      1972.36132945
  ---------------------------------------------------
  free energy    TOTEN  =        -5.51958459 eV

  energy without entropy =       -5.51958459  energy(sigma->0) =       -5.51958459


--------------------------------------------------------------------------------------------------------




----------------------------------------- Iteration    1(   4)  ---------------------------------------


     EDDAV:  cpu time    1.41: real time    1.41
       DOS:  cpu time    0.00: real time    0.00
    --------------------------------------------
      LOOP:  cpu time    1.41: real time    1.41

 eigenvalue-minimisations  :  3560
 total energy-change (2. order) :-0.2818110E-02  (-0.2818110E-02)
 number of electron      18.0000000 magnetization 
 augmentation part       18.0000000 magnetization 

 Free energy of the ion-electron system (eV)
  ---------------------------------------------------
  alpha Z        PSCENC =        41.44870044
  Ewald energy   TEWEN  =     -1095.15256513
  -1/2 Hartree   DENC   =      -770.56142288
  -exchange  EXHF       =         0.00000000
  -V(xc)+E(xc)   XCENC  =        28.71037720
  PAW double counting   =      1425.90876659    -1564.99561147
  entropy T*S    EENTRO =        -0.00000000
  eigenvalues    EBANDS =       -43.24197690
  atomic energy  EATOM  =      1972.36132945
  ---------------------------------------------------
  free energy    TOTEN  =        -5.52240270 eV

  energy without entropy =       -5.52240270  energy(sigma->0) =       -5.52240270


--------------------------------------------------------------------------------------------------------




----------------------------------------- Iteration    1(   5)  ---------------------------------------


     EDDAV:  cpu time    1.14: real time    1.15
       DOS:  cpu time    0.00: real time    0.00
    CHARGE:  cpu time    0.12: real time    0.13
    MIXING:  cpu time    0.00: real time    0.00
    --------------------------------------------
      LOOP:  cpu time    1.27: real time    1.28

 eigenvalue-minimisations  :  2940
 total energy-change (2. order) :-0.4096044E-05  (-0.4096045E-05)
 number of electron      18.0000013 magnetization 
 augmentation part        6.7633804 magnetization 

 Broyden mixing:
  rms(total) = 0.20076E+00    rms(broyden)= 0.20075E+00
  rms(prec ) = 0.64441E+00
  weight for this iteration     100.00

 Free energy of the ion-electron system (eV)
  ---------------------------------------------------
  alpha Z        PSCENC =        41.44870044
  Ewald energy   TEWEN  =     -1095.15256513
  -1/2 Hartree   DENC   =      -770.56142288
  -exchange  EXHF       =         0.00000000
  -V(xc)+E(xc)   XCENC  =        28.71037720
  PAW double counting   =      1425.90876659    -1564.99561147
  entropy T*S    EENTRO =        -0.00000000
  eigenvalues    EBANDS =       -43.24198099
  atomic energy  EATOM  =      1972.36132945
  ---------------------------------------------------
  free energy    TOTEN  =        -5.52240679 eV

  energy without entropy =       -5.52240679  energy(sigma->0) =       -5.52240679


--------------------------------------------------------------------------------------------------------




----------------------------------------- Iteration    1(   6)  ---------------------------------------


    POTLOK:  cpu time    0.02: real time    0.02
    SETDIJ:  cpu time    0.01: real time    0.01
     EDDAV:  cpu time    0.99: real time    0.99
       DOS:  cpu time    0.00: real time    0.00
    CHARGE:  cpu time    0.12: real time    0.12
    MIXING:  cpu time    0.00: real time    0.00
    --------------------------------------------
      LOOP:  cpu time    1.13: real time    1.14

 eigenvalue-minimisations  :  2680
 total energy-change (2. order) : 0.1582013E+00  (-0.9114900E-01)
 number of electron      18.0000013 magnetization 
 augmentation part        6.8676571 magnetization 

 Broyden mixing:
  rms(total) = 0.10386E+00    rms(broyden)= 0.10386E+00
  rms(prec ) = 0.24774E+00
  weight for this iteration     100.00

 eigenvalues of (default mixing * dielectric matrix)
  average eigenvalue GAMMA=   1.1185
  1.1185

 Free energy of the ion-electron system (eV)
  ---------------------------------------------------
  alpha Z        PSCENC =        41.44870044
  Ewald energy   TEWEN  =     -1095.15256513
  -1/2 Hartree   DENC   =      -762.51189640
  -exchange  EXHF       =         0.00000000
  -V(xc)+E(xc)   XCENC  =        28.54766359
  PAW double counting   =      1424.47700654    -1561.28910136
  entropy T*S    EENTRO =        -0.00000000
  eigenvalues    EBANDS =       -53.24534260
  atomic energy  EATOM  =      1972.36132945
  ---------------------------------------------------
  free energy    TOTEN  =        -5.36420549 eV

  energy without entropy =       -5.36420549  energy(sigma->0) =       -5.36420549


--------------------------------------------------------------------------------------------------------




----------------------------------------- Iteration    1(   7)  ---------------------------------------


    POTLOK:  cpu time    0.02: real time    0.02
    SETDIJ:  cpu time    0.00: real time    0.01
     EDDAV:  cpu time    1.26: real time    1.26
       DOS:  cpu time    0.00: real time    0.00
    CHARGE:  cpu time    0.12: real time    0.12
    MIXING:  cpu time    0.00: real time    0.00
    --------------------------------------------
      LOOP:  cpu time    1.40: real time    1.40

 eigenvalue-minimisations  :  3240
 total energy-change (2. order) : 0.1313833E-01  (-0.5555562E-02)
 number of electron      18.0000013 magnetization 
 augmentation part        6.8579277 magnetization 

 Broyden mixing:
  rms(total) = 0.50229E-01    rms(broyden)= 0.50229E-01
  rms(prec ) = 0.12380E+00
  weight for this iteration     100.00

 eigenvalues of (default mixing * dielectric matrix)
  average eigenvalue GAMMA=   1.5587
  0.8800  2.2373

 Free energy of the ion-electron system (eV)
  ---------------------------------------------------
  alpha Z        PSCENC =        41.44870044
  Ewald energy   TEWEN  =     -1095.15256513
  -1/2 Hartree   DENC   =      -762.71083741
  -exchange  EXHF       =         0.00000000
  -V(xc)+E(xc)   XCENC  =        28.65963546
  PAW double counting   =      1434.45144873    -1572.84436142
  entropy T*S    EENTRO =        -0.00000000
  eigenvalues    EBANDS =       -51.56441727
  atomic energy  EATOM  =      1972.36132945
  ---------------------------------------------------
  free energy    TOTEN  =        -5.35106716 eV

  energy without entropy =       -5.35106716  energy(sigma->0) =       -5.35106716


--------------------------------------------------------------------------------------------------------




----------------------------------------- Iteration    1(   8)  ---------------------------------------


    POTLOK:  cpu time    0.02: real time    0.02
    SETDIJ:  cpu time    0.01: real time    0.01
     EDDAV:  cpu time    1.05: real time    1.05
       DOS:  cpu time    0.00: real time    0.00
    CHARGE:  cpu time    0.12: real time    0.12
    MIXING:  cpu time    0.00: real time    0.00
    --------------------------------------------
      LOOP:  cpu time    1.20: real time    1.20

 eigenvalue-minimisations  :  2820
 total energy-change (2. order) : 0.9086521E-03  (-0.9226852E-03)
 number of electron      18.0000013 magnetization 
 augmentation part        6.8610728 magnetization 

 Broyden mixing:
  rms(total) = 0.15142E-01    rms(broyden)= 0.15142E-01
  rms(prec ) = 0.37622E-01
  weight for this iteration     100.00

 eigenvalues of (default mixing * dielectric matrix)
  average eigenvalue GAMMA=   1.7025
  2.6016  0.9127  1.5931

 Free energy of the ion-electron system (eV)
  ---------------------------------------------------
  alpha Z        PSCENC =        41.44870044
  Ewald energy   TEWEN  =     -1095.15256513
  -1/2 Hartree   DENC   =      -761.84542245
  -exchange  EXHF       =         0.00000000
  -V(xc)+E(xc)   XCENC  =        28.70204939
  PAW double counting   =      1441.33233191    -1580.38652147
  entropy T*S    EENTRO =        -0.00000000
  eigenvalues    EBANDS =       -51.81006065
  atomic energy  EATOM  =      1972.36132945
  ---------------------------------------------------
  free energy    TOTEN  =        -5.35015850 eV

  energy without entropy =       -5.35015850  energy(sigma->0) =       -5.35015850


--------------------------------------------------------------------------------------------------------




----------------------------------------- Iteration    1(   9)  ---------------------------------------


    POTLOK:  cpu time    0.02: real time    0.02
    SETDIJ:  cpu time    0.01: real time    0.01
     EDDAV:  cpu time    1.01: real time    1.01
       DOS:  cpu time    0.00: real time    0.00
    CHARGE:  cpu time    0.12: real time    0.12
    MIXING:  cpu time    0.00: real time    0.00
    --------------------------------------------
      LOOP:  cpu time    1.16: real time    1.16

 eigenvalue-minimisations  :  2740
 total energy-change (2. order) :-0.2818116E-03  (-0.1533523E-03)
 number of electron      18.0000013 magnetization 
 augmentation part        6.8613540 magnetization 

 Broyden mixing:
  rms(total) = 0.19495E-02    rms(broyden)= 0.19494E-02
  rms(prec ) = 0.56040E-02
  weight for this iteration     100.00

 eigenvalues of (default mixing * dielectric matrix)
  average eigenvalue GAMMA=   1.6477
  2.6642  0.9225  1.2239  1.7801

 Free energy of the ion-electron system (eV)
  ---------------------------------------------------
  alpha Z        PSCENC =        41.44870044
  Ewald energy   TEWEN  =     -1095.15256513
  -1/2 Hartree   DENC   =      -761.58815334
  -exchange  EXHF       =         0.00000000
  -V(xc)+E(xc)   XCENC  =        28.70829863
  PAW double counting   =      1443.95098223    -1583.17844525
  entropy T*S    EENTRO =        -0.00000000
  eigenvalues    EBANDS =       -51.90058734
  atomic energy  EATOM  =      1972.36132945
  ---------------------------------------------------
  free energy    TOTEN  =        -5.35044032 eV

  energy without entropy =       -5.35044032  energy(sigma->0) =       -5.35044032


--------------------------------------------------------------------------------------------------------




----------------------------------------- Iteration    1(  10)  ---------------------------------------


    POTLOK:  cpu time    0.02: real time    0.02
    SETDIJ:  cpu time    0.01: real time    0.01
     EDDAV:  cpu time    1.34: real time    1.34
       DOS:  cpu time    0.00: real time    0.00
    CHARGE:  cpu time    0.12: real time    0.12
    MIXING:  cpu time    0.00: real time    0.00
    --------------------------------------------
      LOOP:  cpu time    1.49: real time    1.49

 eigenvalue-minimisations  :  3420
 total energy-change (2. order) :-0.5529949E-04  (-0.1239676E-04)
 number of electron      18.0000013 magnetization 
 augmentation part        6.8605160 magnetization 

 Broyden mixing:
  rms(total) = 0.88242E-03    rms(broyden)= 0.88241E-03
  rms(prec ) = 0.27259E-02
  weight for this iteration     100.00

 eigenvalues of (default mixing * dielectric matrix)
  average eigenvalue GAMMA=   1.8429
  3.2265  2.5673  1.6031  0.9088  0.9088

 Free energy of the ion-electron system (eV)
  ---------------------------------------------------
  alpha Z        PSCENC =        41.44870044
  Ewald energy   TEWEN  =     -1095.15256513
  -1/2 Hartree   DENC   =      -761.68862624
  -exchange  EXHF       =         0.00000000
  -V(xc)+E(xc)   XCENC  =        28.71251996
  PAW double counting   =      1443.95164452    -1583.19130492
  entropy T*S    EENTRO =        -0.00000000
  eigenvalues    EBANDS =       -51.79219370
  atomic energy  EATOM  =      1972.36132945
  ---------------------------------------------------
  free energy    TOTEN  =        -5.35049561 eV

  energy without entropy =       -5.35049561  energy(sigma->0) =       -5.35049561


--------------------------------------------------------------------------------------------------------




----------------------------------------- Iteration    1(  11)  ---------------------------------------


    POTLOK:  cpu time    0.02: real time    0.02
    SETDIJ:  cpu time    0.01: real time    0.01
     EDDAV:  cpu time    0.92: real time    0.93
       DOS:  cpu time    0.00: real time    0.00
    CHARGE:  cpu time    0.12: real time    0.12
    MIXING:  cpu time    0.00: real time    0.00
    --------------------------------------------
      LOOP:  cpu time    1.06: real time    1.08

 eigenvalue-minimisations  :  2480
 total energy-change (2. order) :-0.5734286E-05  (-0.2554125E-05)
 number of electron      18.0000013 magnetization 
 augmentation part        6.8607997 magnetization 

 Broyden mixing:
  rms(total) = 0.21522E-03    rms(broyden)= 0.21522E-03
  rms(prec ) = 0.49700E-03
  weight for this iteration     100.00

 eigenvalues of (default mixing * dielectric matrix)
  average eigenvalue GAMMA=   1.7432
  3.1479  2.5784  1.5737  0.9443  1.0206  1.1946

 Free energy of the ion-electron system (eV)
  ---------------------------------------------------
  alpha Z        PSCENC =        41.44870044
  Ewald energy   TEWEN  =     -1095.15256513
  -1/2 Hartree   DENC   =      -761.72350963
  -exchange  EXHF       =         0.00000000
  -V(xc)+E(xc)   XCENC  =        28.71397088
  PAW double counting   =      1443.75665540    -1582.97507088
  entropy T*S    EENTRO =        -0.00000000
  eigenvalues    EBANDS =       -51.78001188
  atomic energy  EATOM  =      1972.36132945
  ---------------------------------------------------
  free energy    TOTEN  =        -5.35050135 eV

  energy without entropy =       -5.35050135  energy(sigma->0) =       -5.35050135


--------------------------------------------------------------------------------------------------------




----------------------------------------- Iteration    1(  12)  ---------------------------------------


    POTLOK:  cpu time    0.02: real time    0.02
    SETDIJ:  cpu time    0.01: real time    0.01
     EDDAV:  cpu time    1.54: real time    1.57
       DOS:  cpu time    0.00: real time    0.00
    --------------------------------------------
      LOOP:  cpu time    1.57: real time    1.60

 eigenvalue-minimisations  :  3800
 total energy-change (2. order) :-0.4260285E-06  (-0.9233554E-07)
 number of electron      18.0000013 magnetization 
 augmentation part        6.8607997 magnetization 

 Free energy of the ion-electron system (eV)
  ---------------------------------------------------
  alpha Z        PSCENC =        41.44870044
  Ewald energy   TEWEN  =     -1095.15256513
  -1/2 Hartree   DENC   =      -761.72038178
  -exchange  EXHF       =         0.00000000
  -V(xc)+E(xc)   XCENC  =        28.71366511
  PAW double counting   =      1443.74149938    -1582.95707018
  entropy T*S    EENTRO =        -0.00000000
  eigenvalues    EBANDS =       -51.78567906
  atomic energy  EATOM  =      1972.36132945
  ---------------------------------------------------
  free energy    TOTEN  =        -5.35050177 eV

  energy without entropy =       -5.35050177  energy(sigma->0) =       -5.35050177


--------------------------------------------------------------------------------------------------------




 average (electrostatic) potential at core
  the test charge radii are     0.9521  1.1897
  (the norm of the test charge is              1.0000)
       1 -36.3047       2 -90.9948
 
 
 
 E-fermi :   2.8526     XC(G=0):  -8.7678     alpha+bet : -7.9798


 k-point   1 :       0.0000    0.0000    0.0000
  band No.  band energies     occupation 
      1      -8.7159      2.00000
      2      -3.9830      2.00000
      3      -3.9830      2.00000
      4      -3.9830      2.00000
      5      -3.7755      2.00000
      6      -3.7755      2.00000
      7       2.8128      2.00000
      8       2.8128      2.00000
      9       2.8128      2.00000
     10       3.8915      0.00000
     11       7.2463      0.00000
     12       7.2463      0.00000
     13       7.2463      0.00000
     14      10.0984      0.00000
     15      12.3269      0.00000
     16      12.3269      0.00000
     17      13.3914      0.00000
     18      13.3914      0.00000
     19      13.3914      0.00000
     20      16.1789      0.00000

 k-point   2 :       0.0909    0.0000    0.0000
  band No.  band energies     occupation 
      1      -8.6631      2.00000
      2      -3.9783      2.00000
      3      -3.9783      2.00000
      4      -3.9773      2.00000
      5      -3.7761      2.00000
      6      -3.7761      2.00000
      7       1.9516      2.00000
      8       2.7278      2.00000
      9       2.7278      2.00000
     10       4.5151      0.00000
     11       7.2738      0.00000
     12       7.3827      0.00000
     13       7.3827      0.00000
     14      10.5773      0.00000
     15      11.8279      0.00000
     16      11.8279      0.00000
     17      13.0622      0.00000
     18      14.1813      0.00000
     19      14.1813      0.00000
     20      16.8265      0.00000

 k-point   3 :       0.1818    0.0000    0.0000
  band No.  band energies     occupation 
      1      -8.5145      2.00000
      2      -3.9659      2.00000
      3      -3.9659      2.00000
      4      -3.9544      2.00000
      5      -3.7770      2.00000
      6      -3.7770      2.00000
      7       0.7088      2.00000
      8       2.5215      2.00000
      9       2.5215      2.00000
     10       4.9023      0.00000
     11       7.6821      0.00000
     12       7.6821      0.00000
     13       7.7936      0.00000
     14      11.3394      0.00000
     15      11.3915      0.00000
     16      11.3915      0.00000
     17      12.9466      0.00000
     18      15.5445      0.00000
     19      15.5445      0.00000
     20      18.2518      0.00000

 k-point   4 :       0.2727    0.0000    0.0000
  band No.  band energies     occupation 
      1      -8.3020      2.00000
      2      -3.9513      2.00000
      3      -3.9513      2.00000
      4      -3.8980      2.00000
      5      -3.7762      2.00000
      6      -3.7762      2.00000
      7      -0.4565      2.00000
      8       2.2870      2.00000
      9       2.2870      2.00000
     10       4.8267      0.00000
     11       7.9021      0.00000
     12       7.9021      0.00000
     13       8.8978      0.00000
     14      11.2183      0.00000
     15      11.4989      0.00000
     16      11.4989      0.00000
     17      14.2029      0.00000
     18      17.0882      0.00000
     19      17.0882      0.00000
     20      18.7651      0.00000

 k-point   5 :       0.3636    0.0000    0.0000
  band No.  band energies     occupation 
      1      -8.0843      2.00000
      2      -3.9398      2.00000
      3      -3.9398      2.00000
      4      -3.7912      2.00000
      5      -3.7733      2.00000
      6      -3.7733      2.00000
      7      -1.4135      2.00000
      8       2.0969      2.00000
      9       2.0969      2.00000
     10       4.6650      0.00000
     11       7.9349      0.00000
     12       7.9349      0.00000
     13      10.0663      0.00000
     14      11.0969      0.00000
     15      12.2117      0.00000
     16      12.2117      0.00000
     17      15.4545      0.00000
     18      16.7253      0.00000
     19      16.7253      0.00000
     20      17.9998      0.00000

 k-point   6 :       0.4545    0.0000    0.0000
  band No.  band energies     occupation 
      1      -7.9421      2.00000
      2      -3.9341      2.00000
      3      -3.9341      2.00000
      4      -3.7702      2.00000
      5      -3.7702      2.00000
      6      -3.6636      2.00000
      7      -2.0090      2.00000
      8       1.9928      2.00000
      9       1.9928      2.00000
     10       4.5662      0.00000
     11       7.8981      0.00000
     12       7.8981      0.00000
     13      10.3620      0.00000
     14      11.9149      0.00000
     15      13.2926      0.00000
     16      13.2926      0.00000
     17      14.7791      0.00000
     18      15.1621      0.00000
     19      15.1621      0.00000
     20      19.1499      0.00000

 k-point   7 :       0.0909    0.0909    0.0000
  band No.  band energies     occupation 
      1      -8.6455      2.00000
      2      -3.9807      2.00000
      3      -3.9740      2.00000
      4      -3.9740      2.00000
      5      -3.7787      2.00000
      6      -3.7739      2.00000
      7       1.9217      2.00000
      8       2.5689      2.00000
      9       2.5689      2.00000
     10       4.7759      0.00000
     11       6.8896      0.00000
     12       7.6177      0.00000
     13       7.6177      0.00000
     14      10.6921      0.00000
     15      11.1804      0.00000
     16      12.4263      0.00000
     17      13.6256      0.00000
     18      13.6256      0.00000
     19      14.2241      0.00000
     20      17.1347      0.00000

 k-point   8 :       0.1818    0.0909    0.0000
  band No.  band energies     occupation 
      1      -8.5285      2.00000
      2      -3.9721      2.00000
      3      -3.9617      2.00000
      4      -3.9585      2.00000
      5      -3.7814      2.00000
      6      -3.7727      2.00000
      7       0.9833      2.00000
      8       2.3191      2.00000
      9       2.3906      2.00000
     10       5.2561      0.00000
     11       6.8468      0.00000
     12       8.0100      0.00000
     13       8.0516      0.00000
     14      10.5807      0.00000
     15      11.5655      0.00000
     16      12.1648      0.00000
     17      13.3630      0.00000
     18      14.5450      0.00000
     19      15.3708      0.00000
     20      18.3621      0.00000

 k-point   9 :       0.2727    0.0909    0.0000
  band No.  band energies     occupation 
      1      -8.3363      2.00000
      2      -3.9564      2.00000
      3      -3.9464      2.00000
      4      -3.9180      2.00000
      5      -3.7813      2.00000
      6      -3.7714      2.00000
      7      -0.1250      2.00000
      8       2.0766      2.00000
      9       2.1354      2.00000
     10       5.3128      0.00000
     11       7.2604      0.00000
     12       8.3075      0.00000
     13       8.5658      0.00000
     14      10.7114      0.00000
     15      11.9489      0.00000
     16      12.1211      0.00000
     17      13.8877      0.00000
     18      15.9921      0.00000
     19      16.9657      0.00000
     20      18.6369      0.00000

 k-point  10 :       0.3636    0.0909    0.0000
  band No.  band energies     occupation 
      1      -8.1176      2.00000
      2      -3.9425      2.00000
      3      -3.9339      2.00000
      4      -3.8357      2.00000
      5      -3.7715      2.00000
      6      -3.7694      2.00000
      7      -1.1156      2.00000
      8       1.8544      2.00000
      9       1.9073      2.00000
     10       5.1767      0.00000
     11       7.5749      0.00000
     12       8.3468      0.00000
     13       9.2815      0.00000
     14      11.3518      0.00000
     15      11.9572      0.00000
     16      12.6784      0.00000
     17      15.1323      0.00000
     18      16.5743      0.00000
     19      17.3405      0.00000
     20      17.8527      0.00000

 k-point  11 :       0.4545    0.0909    0.0000
  band No.  band energies     occupation 
      1      -7.9463      2.00000
      2      -3.9339      2.00000
      3      -3.9275      2.00000
      4      -3.7831      2.00000
      5      -3.7685      2.00000
      6      -3.6884      2.00000
      7      -1.8270      2.00000
      8       1.6290      2.00000
      9       1.8450      2.00000
     10       5.0614      0.00000
     11       7.6407      0.00000
     12       8.2312      0.00000
     13      10.2129      0.00000
     14      11.5423      0.00000
     15      12.9070      0.00000
     16      13.5989      0.00000
     17      14.6274      0.00000
     18      15.0536      0.00000
     19      17.0253      0.00000
     20      18.6340      0.00000

 k-point  12 :      -0.4545    0.0909    0.0000
  band No.  band energies     occupation 
      1      -7.8968      2.00000
      2      -3.9307      2.00000
      3      -3.9274      2.00000
      4      -3.7751      2.00000
      5      -3.7710      2.00000
      6      -3.6334      2.00000
      7      -2.0381      2.00000
      8       1.5048      2.00000
      9       1.8988      2.00000
     10       5.0276      0.00000
     11       7.7060      0.00000
     12       8.1112      0.00000
     13      10.5970      0.00000
     14      11.9203      0.00000
     15      13.0948      0.00000
     16      13.1872      0.00000
     17      14.6168      0.00000
     18      15.4285      0.00000
     19      15.8694      0.00000
     20      19.4224      0.00000

 k-point  13 :      -0.3636    0.0909    0.0000
  band No.  band energies     occupation 
      1      -7.9940      2.00000
      2      -3.9333      2.00000
      3      -3.9326      2.00000
      4      -3.7807      2.00000
      5      -3.7763      2.00000
      6      -3.7279      2.00000
      7      -1.6297      2.00000
      8       1.5049      2.00000
      9       2.0579      2.00000
     10       5.0854      0.00000
     11       7.8392      0.00000
     12       8.0308      0.00000
     13      10.1215      0.00000
     14      11.5637      0.00000
     15      11.8960      0.00000
     16      13.6391      0.00000
     17      14.4910      0.00000
     18      16.4361      0.00000
     19      16.9869      0.00000
     20      18.0739      0.00000

 k-point  14 :      -0.2727    0.0909    0.0000
  band No.  band energies     occupation 
      1      -8.1906      2.00000
      2      -3.9449      2.00000
      3      -3.9401      2.00000
      4      -3.8644      2.00000
      5      -3.7808      2.00000
      6      -3.7679      2.00000
      7      -0.8065      2.00000
      8       1.6387      2.00000
      9       2.2905      2.00000
     10       5.2093      0.00000
     11       7.9236      0.00000
     12       7.9241      0.00000
     13       9.0816      0.00000
     14      11.0646      0.00000
     15      11.5760      0.00000
     16      12.7265      0.00000
     17      14.6910      0.00000
     18      16.6597      0.00000
     19      17.1451      0.00000
     20      18.2698      0.00000

 k-point  15 :      -0.1818    0.0909    0.0000
  band No.  band energies     occupation 
      1      -8.4074      2.00000
      2      -3.9598      2.00000
      3      -3.9533      2.00000
      4      -3.9350      2.00000
      5      -3.7816      2.00000
      6      -3.7723      2.00000
      7       0.2261      2.00000
      8       1.9058      2.00000
      9       2.5383      2.00000
     10       5.2841      0.00000
     11       7.5491      0.00000
     12       7.6921      0.00000
     13       8.4387      0.00000
     14      10.8168      0.00000
     15      11.4915      0.00000
     16      12.1759      0.00000
     17      13.6316      0.00000
     18      15.2451      0.00000
     19      16.8632      0.00000
     20      18.6420      0.00000

 k-point  16 :      -0.0909    0.0909    0.0000
  band No.  band energies     occupation 
      1      -8.5783      2.00000
      2      -3.9727      2.00000
      3      -3.9694      2.00000
      4      -3.9657      2.00000
      5      -3.7792      2.00000
      6      -3.7743      2.00000
      7       1.2619      2.00000
      8       2.3081      2.00000
      9       2.7137      2.00000
     10       5.0072      0.00000
     11       7.1816      0.00000
     12       7.4342      0.00000
     13       7.9563      0.00000
     14      11.1376      0.00000
     15      11.1797      0.00000
     16      11.7200      0.00000
     17      13.6113      0.00000
     18      13.9024      0.00000
     19      15.3971      0.00000
     20      17.7418      0.00000

 k-point  17 :       0.1818    0.1818    0.0000
  band No.  band energies     occupation 
      1      -8.4465      2.00000
      2      -3.9698      2.00000
      3      -3.9486      2.00000
      4      -3.9486      2.00000
      5      -3.7850      2.00000
      6      -3.7695      2.00000
      7       0.7297      2.00000
      8       2.0330      2.00000
      9       2.0330      2.00000
     10       5.6111      0.00000
     11       6.4636      0.00000
     12       8.5321      0.00000
     13       8.5321      0.00000
     14       9.9815      0.00000
     15      12.1571      0.00000
     16      12.7233      0.00000
     17      14.3279      0.00000
     18      14.3279      0.00000
     19      15.0246      0.00000
     20      19.4123      0.00000

 k-point  18 :       0.2727    0.1818    0.0000
  band No.  band energies     occupation 
      1      -8.2853      2.00000
      2      -3.9547      2.00000
      3      -3.9317      2.00000
      4      -3.9232      2.00000
      5      -3.7838      2.00000
      6      -3.7671      2.00000
      7      -0.0267      2.00000
      8       1.7265      2.00000
      9       1.7683      2.00000
     10       5.6984      0.00000
     11       6.5789      0.00000
     12       8.7557      0.00000
     13       8.9922      0.00000
     14      10.3193      0.00000
     15      12.7901      0.00000
     16      12.9201      0.00000
     17      14.3391      0.00000
     18      15.3119      0.00000
     19      16.3570      0.00000
     20      18.6529      0.00000

 k-point  19 :       0.3636    0.1818    0.0000
  band No.  band energies     occupation 
      1      -8.0843      2.00000
      2      -3.9383      2.00000
      3      -3.9173      2.00000
      4      -3.8682      2.00000
      5      -3.7656      2.00000
      6      -3.7654      2.00000
      7      -0.8764      2.00000
      8       1.3447      2.00000
      9       1.5925      2.00000
     10       5.7079      0.00000
     11       7.0488      0.00000
     12       8.6372      0.00000
     13       9.1430      0.00000
     14      11.5148      0.00000
     15      13.0118      0.00000
     16      13.2069      0.00000
     17      15.0488      0.00000
     18      16.4991      0.00000
     19      17.0431      0.00000
     20      17.2695      0.00000

 k-point  20 :       0.4545    0.1818    0.0000
  band No.  band energies     occupation 
      1      -7.9063      2.00000
      2      -3.9287      2.00000
      3      -3.9096      2.00000
      4      -3.8139      2.00000
      5      -3.7659      2.00000
      6      -3.6925      2.00000
      7      -1.5803      2.00000
      8       0.9851      2.00000
      9       1.5398      2.00000
     10       5.6566      0.00000
     11       7.5004      0.00000
     12       9.0187      0.00000
     13       9.0333      0.00000
     14      12.2854      0.00000
     15      13.3026      0.00000
     16      13.9361      0.00000
     17      14.6389      0.00000
     18      15.1333      0.00000
     19      17.7683      0.00000
     20      18.6181      0.00000

 k-point  21 :      -0.4545    0.1818    0.0000
[...]

 k-point  43 :      -0.4545    0.2727    0.0909
  band No.  band energies     occupation 
      1      -7.7987      2.00000
      2      -3.9177      2.00000
      3      -3.8982      2.00000
      4      -3.8100      2.00000
      5      -3.7689      2.00000
      6      -3.6303      2.00000
      7      -1.7063      2.00000
      8       0.4647      2.00000
      9       1.3098      2.00000
     10       6.0208      0.00000
     11       7.5437      0.00000
     12       8.6663      0.00000
     13       9.9691      0.00000
     14      11.8701      0.00000
     15      13.7168      0.00000
     16      14.0362      0.00000
     17      14.6856      0.00000
     18      16.2120      0.00000
     19      17.8083      0.00000
     20      19.2026      0.00000

 k-point  44 :      -0.3636    0.2727    0.0909
  band No.  band energies     occupation 
      1      -7.7632      2.00000
      2      -3.9163      2.00000
      3      -3.8994      2.00000
      4      -3.7936      2.00000
      5      -3.7753      2.00000
      6      -3.5876      2.00000
      7      -1.8423      2.00000
      8       0.2953      2.00000
      9       1.3696      2.00000
     10       6.0901      0.00000
     11       7.6340      0.00000
     12       9.0958      0.00000
     13      10.2882      0.00000
     14      10.8435      0.00000
     15      13.1266      0.00000
     16      14.0610      0.00000
     17      15.1414      0.00000
     18      17.3051      0.00000
     19      18.0631      0.00000
     20      18.3949      0.00000

 k-point  45 :      -0.2727    0.2727    0.0909
  band No.  band energies     occupation 
      1      -7.8456      2.00000
      2      -3.9171      2.00000
      3      -3.9092      2.00000
      4      -3.8005      2.00000
      5      -3.7751      2.00000
      6      -3.6636      2.00000
      7      -1.5491      2.00000
      8       0.3246      2.00000
      9       1.5777      2.00000
     10       6.1881      0.00000
     11       7.6949      0.00000
     12       8.5458      0.00000
     13       9.8870      0.00000
     14      11.3809      0.00000
     15      12.3536      0.00000
     16      14.2336      0.00000
     17      15.5213      0.00000
     18      16.4778      0.00000
     19      17.4440      0.00000
     20      19.0533      0.00000

 k-point  46 :      -0.1818    0.2727    0.0909
  band No.  band energies     occupation 
      1      -8.0091      2.00000
      2      -3.9269      2.00000
      3      -3.9205      2.00000
      4      -3.8340      2.00000
      5      -3.7767      2.00000
      6      -3.7436      2.00000
      7      -1.0445      2.00000
      8       0.6500      2.00000
      9       1.8578      2.00000
     10       6.1655      0.00000
     11       7.4863      0.00000
     12       8.1543      0.00000
     13       9.3657      0.00000
     14      11.0053      0.00000
     15      13.1041      0.00000
     16      14.0293      0.00000
     17      14.9110      0.00000
     18      15.2579      0.00000
     19      17.5008      0.00000
     20      18.7122      0.00000

 k-point  47 :       0.4545    0.3636    0.0909
  band No.  band energies     occupation 
      1      -7.8434      2.00000
      2      -3.9153      2.00000
      3      -3.8841      2.00000
      4      -3.8579      2.00000
      5      -3.7609      2.00000
      6      -3.6989      2.00000
      7      -1.3670      2.00000
      8       0.7937      2.00000
      9       1.0606      2.00000
     10       5.6260      0.00000
     11       6.2060      0.00000
     12       9.5357      0.00000
     13      10.9626      0.00000
     14      11.9880      0.00000
     15      14.2902      0.00000
     16      14.4454      0.00000
     17      15.7694      0.00000
     18      16.1996      0.00000
     19      16.7534      0.00000
     20      17.5794      0.00000

 k-point  48 :      -0.4545    0.3636    0.0909
  band No.  band energies     occupation 
      1      -7.7247      2.00000
      2      -3.9092      2.00000
      3      -3.8780      2.00000
      4      -3.8315      2.00000
      5      -3.7645      2.00000
      6      -3.6107      2.00000
      7      -1.7018      2.00000
      8       0.3714      2.00000
      9       0.9389      2.00000
     10       5.8502      0.00000
     11       6.7715      0.00000
     12       9.2852      0.00000
     13      11.0237      0.00000
     14      12.1665      0.00000
     15      14.0215      0.00000
     16      14.6504      0.00000
     17      15.5621      0.00000
     18      16.3653      0.00000
     19      17.3195      0.00000
     20      18.2157      0.00000

 k-point  49 :      -0.3636    0.3636    0.0909
  band No.  band energies     occupation 
      1      -7.6804      2.00000
      2      -3.9092      2.00000
      3      -3.8792      2.00000
      4      -3.8089      2.00000
      5      -3.7726      2.00000
      6      -3.5499      2.00000
      7      -1.8243      2.00000
      8       0.0102      2.00000
      9       1.0225      2.00000
     10       5.9776      0.00000
     11       7.7730      0.00000
     12       9.1871      0.00000
     13      10.2730      0.00000
     14      11.4667      0.00000
     15      13.2524      0.00000
     16      15.2909      0.00000
     17      15.6892      0.00000
     18      17.2455      0.00000
     19      17.8528      0.00000
     20      18.6619      0.00000

 k-point  50 :      -0.2727    0.3636    0.0909
  band No.  band energies     occupation 
      1      -7.7274      2.00000
      2      -3.9113      2.00000
      3      -3.8913      2.00000
      4      -3.7957      2.00000
      5      -3.7788      2.00000
      6      -3.5811      2.00000
      7      -1.7205      2.00000
      8      -0.0556      2.00000
      9       1.2606      2.00000
     10       6.1578      0.00000
     11       8.2549      0.00000
     12       8.7443      0.00000
     13      10.3262      0.00000
     14      10.8287      0.00000
     15      12.2741      0.00000
     16      15.6455      0.00000
     17      15.8351      0.00000
     18      16.8226      0.00000
     19      17.7954      0.00000
     20      18.4966      0.00000

 k-point  51 :      -0.4545    0.4545    0.0909
  band No.  band energies     occupation 
      1      -7.6637      2.00000
      2      -3.9074      2.00000
      3      -3.8611      2.00000
      4      -3.8419      2.00000
      5      -3.7593      2.00000
      6      -3.5844      2.00000
      7      -1.8676      2.00000
      8       0.6061      2.00000
      9       0.7158      2.00000
     10       5.5615      0.00000
     11       5.8213      0.00000
     12      10.7268      0.00000
     13      11.6855      0.00000
     14      12.7204      0.00000
     15      14.2305      0.00000
     16      14.7266      0.00000
     17      15.3541      0.00000
     18      16.6232      0.00000
     19      17.7081      0.00000
     20      17.8422      0.00000

 k-point  52 :      -0.3636    0.4545    0.0909
  band No.  band energies     occupation 
      1      -7.6416      2.00000
      2      -3.9058      2.00000
      3      -3.8652      2.00000
      4      -3.8269      2.00000
      5      -3.7655      2.00000
      6      -3.5426      2.00000
      7      -1.8953      2.00000
      8       0.2168      2.00000
      9       0.7717      2.00000
     10       5.7750      0.00000
     11       6.6531      0.00000
     12      10.4490      0.00000
     13      10.4653      0.00000
     14      12.5243      0.00000
     15      13.7147      0.00000
     16      15.0201      0.00000
     17      15.7747      0.00000
     18      17.5915      0.00000
     19      17.7695      0.00000
     20      18.2850      0.00000

 k-point  53 :      -0.4545    0.3636    0.1818
  band No.  band energies     occupation 
      1      -7.7916      2.00000
      2      -3.9092      2.00000
      3      -3.8974      2.00000
      4      -3.8193      2.00000
      5      -3.7697      2.00000
      6      -3.6459      2.00000
      7      -1.5407      2.00000
      8       0.3080      2.00000
      9       1.1415      2.00000
     10       6.5335      0.00000
     11       7.1942      0.00000
     12       8.1632      0.00000
     13      10.8486      0.00000
     14      11.5327      0.00000
     15      13.0094      0.00000
     16      15.2731      0.00000
     17      15.4368      0.00000
     18      16.1433      0.00000
     19      17.1523      0.00000
     20      18.1413      0.00000

 k-point  54 :      -0.3636    0.3636    0.1818
  band No.  band energies     occupation 
      1      -7.7013      2.00000
      2      -3.9065      2.00000
      3      -3.8878      2.00000
      4      -3.8011      2.00000
      5      -3.7782      2.00000
      6      -3.5647      2.00000
      7      -1.7714      2.00000
      8       0.0900      2.00000
      9       0.9266      2.00000
     10       6.6983      0.00000
     11       7.5994      0.00000
     12       8.4439      0.00000
     13      10.1985      0.00000
     14      11.4905      0.00000
     15      13.5679      0.00000
     16      14.9944      0.00000
     17      15.3770      0.00000
     18      17.2371      0.00000
     19      17.6106      0.00000
     20      18.5289      0.00000

 k-point  55 :      -0.3636    0.4545    0.1818
  band No.  band energies     occupation 
      1      -7.6551      2.00000
      2      -3.9030      2.00000
      3      -3.8747      2.00000
      4      -3.8152      2.00000
      5      -3.7726      2.00000
      6      -3.5441      2.00000
      7      -1.8252      2.00000
      8       0.2340      2.00000
      9       0.5745      2.00000
     10       6.6181      0.00000
     11       6.9154      0.00000
     12       9.0168      0.00000
     13      10.2393      0.00000
     14      12.6552      0.00000
     15      14.0094      0.00000
     16      14.8347      0.00000
     17      15.5392      0.00000
     18      17.1952      0.00000
     19      17.7159      0.00000
     20      18.4475      0.00000

 k-point  56 :      -0.2727    0.4545    0.1818
  band No.  band energies     occupation 
      1      -7.6466      2.00000
      2      -3.9029      2.00000
      3      -3.8766      2.00000
      4      -3.8000      2.00000
      5      -3.7829      2.00000
      6      -3.5249      2.00000
      7      -1.8275      2.00000
      8       0.0587      2.00000
      9       0.5990      2.00000
     10       6.8369      0.00000
     11       7.7580      0.00000
     12       8.7011      0.00000
     13       9.2802      0.00000
     14      12.6069      0.00000
     15      13.8106      0.00000
     16      14.9579      0.00000
     17      15.7190      0.00000
     18      17.2261      0.00000
     19      17.6907      0.00000
     20      19.0776      0.00000


--------------------------------------------------------------------------------------------------------


 soft charge-density along one line, spin component           1
         0         1         2         3         4         5         6         7         8         9
 total charge-density along one line
 
 pseudopotential strength for first ion, spin component:           1
 -9.836  -0.000  -0.000  -0.000   0.000   1.828   0.000  -0.000
 -0.000  -9.836  -0.000  -0.000  -0.000   0.000   1.828   0.000
 -0.000  -0.000  -9.836  -0.000  -0.000  -0.000   0.000   1.828
 -0.000  -0.000  -0.000  -9.836   0.000   0.000  -0.000   0.000
  0.000  -0.000  -0.000   0.000  -9.836   0.000   0.000  -0.000
  1.828   0.000  -0.000   0.000   0.000   1.315  -0.000   0.000
  0.000   1.828   0.000  -0.000   0.000  -0.000   1.315  -0.000
 -0.000   0.000   1.828   0.000  -0.000   0.000  -0.000   1.315
  0.000  -0.000   0.000   1.828   0.000  -0.000   0.000  -0.000
  0.000   0.000  -0.000   0.000   1.828  -0.000  -0.000   0.000
  0.000   0.000  -0.000   0.000   0.000  -0.000  -0.000   0.000
 -0.000  -0.000   0.000  -0.000   0.000   0.000   0.000  -0.000
 -0.000  -0.000  -0.001   0.000  -0.002   0.000   0.000   0.001
  0.000  -0.001   0.000  -0.002   0.000  -0.000   0.002  -0.000
 -0.001   0.000  -0.001   0.000   0.001   0.002  -0.000   0.002
 -0.000  -0.000   0.000   0.000   0.001   0.000   0.000  -0.000
  0.000   0.000   0.000   0.001   0.000  -0.000  -0.000  -0.000
  0.000   0.000   0.001   0.000  -0.000  -0.000  -0.000  -0.000
 total augmentation occupancy for first ion, spin component:           1
  1.991  -0.000   0.002  -0.000  -0.001   0.003  -0.000   0.005   0.000  -0.003  -0.000  -0.000   0.000  -0.000   0.002  -0.000
 -0.000   1.991  -0.000   0.002   0.000  -0.000   0.003  -0.000   0.006   0.000  -0.000  -0.000   0.000   0.002  -0.000  -0.000
  0.002  -0.000   1.993  -0.000   0.001   0.005  -0.000   0.009  -0.000   0.002   0.000   0.000   0.001  -0.000   0.002  -0.003
 -0.000   0.002  -0.000   1.993  -0.000   0.000   0.006  -0.000   0.008  -0.000  -0.000  -0.000  -0.000   0.002   0.000   0.000
 -0.001   0.000   0.001  -0.000   1.994  -0.003   0.000   0.002  -0.000   0.011  -0.000  -0.000   0.003  -0.000  -0.001  -0.005
  0.003  -0.000   0.005   0.000  -0.003   0.030  -0.000   0.017  -0.000  -0.010   0.000  -0.000   0.000  -0.000   0.048  -0.000
 -0.000   0.003  -0.000   0.006   0.000  -0.000   0.030  -0.000   0.020   0.000   0.000  -0.000   0.000   0.048  -0.000  -0.000
  0.005  -0.000   0.009  -0.000   0.002   0.017  -0.000   0.047  -0.000   0.006  -0.000   0.000   0.041  -0.000   0.058  -0.003
  0.000   0.006  -0.000   0.008  -0.000  -0.000   0.020  -0.000   0.044  -0.000   0.000  -0.000  -0.000   0.067   0.000   0.000
 -0.003   0.000   0.002  -0.000   0.011  -0.010   0.000   0.006  -0.000   0.055   0.000  -0.000   0.071  -0.000  -0.034  -0.005
 -0.000  -0.000   0.000  -0.000  -0.000   0.000   0.000  -0.000   0.000   0.000   1.170  -0.257  -0.000   0.000  -0.000  -0.000
 -0.000  -0.000   0.000  -0.000  -0.000  -0.000  -0.000   0.000  -0.000  -0.000  -0.257   0.101   0.000   0.000  -0.000  -0.000
  0.000   0.000   0.001  -0.000   0.003   0.000   0.000   0.041  -0.000   0.071   0.000  -0.000   0.189  -0.000  -0.000  -0.013
 -0.000   0.002  -0.000   0.002  -0.000  -0.000   0.048  -0.000   0.067  -0.000   0.000   0.000  -0.000   0.189  -0.000   0.000
  0.002  -0.000   0.002   0.000  -0.001   0.048  -0.000   0.058   0.000  -0.034  -0.000  -0.000  -0.000  -0.000   0.189   0.000
 -0.000  -0.000  -0.003   0.000  -0.005  -0.000  -0.000  -0.003   0.000  -0.005   0.000   0.000  -0.013   0.000   0.000   0.001
  0.000  -0.003   0.000  -0.004   0.000   0.000  -0.004   0.000  -0.005   0.000   0.000   0.000   0.000  -0.013   0.000  -0.000
 -0.003   0.000  -0.004  -0.000   0.002  -0.004   0.000  -0.004  -0.000   0.003   0.000   0.000   0.000   0.000  -0.013  -0.000


------------------------ aborting loop because EDIFF is reached ----------------------------------------


    CHARGE:  cpu time    0.12: real time    0.12
    FORLOC:  cpu time    0.00: real time    0.00
    FORNL :  cpu time    0.06: real time    0.06
    STRESS:  cpu time    0.81: real time    0.82
    FORCOR:  cpu time    0.02: real time    0.02
    FORHAR:  cpu time    0.01: real time    0.01
    MIXING:  cpu time    0.00: real time    0.00

  FORCE on cell =-STRESS in cart. coord.  units (eV):
  Direction    XX          YY          ZZ          XY          YZ          ZX
  --------------------------------------------------------------------------------------
  Alpha Z    41.44870    41.44870    41.44870
  Ewald    -365.05101  -365.05096  -365.05101    -0.00004     0.00004     0.00005
  Hartree   253.90682   253.90683   253.90686    -0.00003    -0.00000    -0.00000
  E(xc)     -95.95569   -95.95569   -95.95569     0.00000     0.00000     0.00000
  Local     -48.75521   -48.75528   -48.75522     0.00010     0.00003     0.00004
  n-local    73.51486    78.30746    82.95591    -0.24744    -1.10883    -0.19869
  augment    14.45679    14.45680    14.45677    -0.00002    -0.00003    -0.00004
  Kinetic   117.13414   121.37046   126.60014     0.26068    -0.09474    -0.31438
  Fock        0.00000     0.00000     0.00000     0.00000     0.00000     0.00000
  -------------------------------------------------------------------------------------
  Total       0.01139     0.01139     0.01139    -0.00000    -0.00000    -0.00000
  in kB       0.30862     0.30862     0.30862    -0.00000    -0.00000    -0.00000
  external pressure =        0.31 kB  Pullay stress =        0.00 kB


 VOLUME and BASIS-vectors are now :
 -----------------------------------------------------------------------------
  energy-cutoff  :      520.00
  volume of cell :       59.15
      direct lattice vectors                 reciprocal lattice vectors
     3.787417000  0.000000000  2.186666000     0.264032189 -0.093349451  0.000000000
     1.262472000  3.570811000  2.186666000     0.000000000  0.280048426  0.000000000
     0.000000000  0.000000000  4.373333000    -0.132016064 -0.093349466  0.228658554

  length of vectors
     4.373332337  4.373332247  4.373333000     0.280048418  0.280048426  0.280048386


 FORCES acting on ions
    electron-ion (+dipol)            ewald-force                    non-local-force                 convergence-correction
 -----------------------------------------------------------------------------------------------
   -.744E-05 -.105E-04 0.235E-04   0.134E-04 0.191E-04 -.441E-04   0.208E-16 -.520E-17 -.139E-16   0.641E-08 0.470E-08 0.999E-08
   0.117E-04 0.165E-04 -.372E-04   -.134E-04 -.191E-04 0.441E-04   -.226E-16 -.885E-16 -.278E-15   0.671E-09 0.327E-09 0.219E-08
 -----------------------------------------------------------------------------------------------
   0.424E-05 0.602E-05 -.137E-04   0.753E-15 -.543E-15 -.701E-15   -.173E-17 -.937E-16 -.291E-15   0.709E-08 0.502E-08 0.122E-07
 
 
 POSITION                                       TOTAL-FORCE (eV/Angst)
 -----------------------------------------------------------------------------------
      0.00000      0.00000      0.00000         0.000000      0.000000     -0.000000
      1.26247      0.89270      2.18667        -0.000000     -0.000000      0.000000
 -----------------------------------------------------------------------------------
    total drift:                                0.000004      0.000006     -0.000014


--------------------------------------------------------------------------------------------------------



  FREE ENERGIE OF THE ION-ELECTRON SYSTEM (eV)
  ---------------------------------------------------
  free  energy   TOTEN  =        -5.35050177 eV

  energy  without entropy=       -5.35050177  energy(sigma->0) =       -5.35050177
 


--------------------------------------------------------------------------------------------------------


    POTLOK:  cpu time    0.06: real time    0.06


--------------------------------------------------------------------------------------------------------


 writing wavefunctions
     LOOP+:  cpu time   16.80: real time   16.92
    4ORBIT:  cpu time    0.00: real time    0.00

 total amount of memory used by VASP on root node    62002. kBytes
========================================================================

   base      :      30000. kBytes
   nonl-proj :      26502. kBytes
   fftplans  :        893. kBytes
   grid      :       3071. kBytes
   one-center:         31. kBytes
   wavefun   :       1505. kBytes
 
  
  
 General timing and accounting informations for this job:
 ========================================================
  
                  Total CPU time used (sec):       23.603
                            User time (sec):       22.355
                          System time (sec):        1.249
                         Elapsed time (sec):       24.168
  
                   Maximum memory used (kb):      103684.
                   Average memory used (kb):           0.
  
                          Minor page faults:        12140
                          Major page faults:            0
                 Voluntary context switches:         5795
