<?xml version="1.0" encoding="ISO-8859-1"?>
<modeling>
 <generator>
  <i name="program" type="string">vasp </i>
  <i name="version" type="string">5.3.3  </i>
  <i name="subversion" type="string">18Dez12 (build Dec 13 2014 13:36:02) complex                          parallel </i>
  <i name="platform" type="string">LinuxIFC </i>
  <i name="date" type="string">2018 11 28 </i>
  <i name="time" type="string">13:03:35 </i>
 </generator>
 <incar>
  <i type="string" name="PREC">accurate</i>
  <i type="int" name="ISPIN">     1</i>
  <i type="int" name="IBRION">    -1</i>
  <i name="EDIFF">      0.00000100</i>
  <i type="int" name="NSW">     0</i>
  <i type="int" name="ISIF">     3</i>
  <i type="int" name="ISYM">     1</i>
  <i name="ENCUT">    520.00000000</i>
  <i type="int" name="NEDOS">  5000</i>
  <i name="EMIN">    -20.00000000</i>
  <i name="EMAX">     20.00000000</i>
  <i type="int" name="ISMEAR">     0</i>
  <i name="SIGMA">      0.01000000</i>
  <i type="logical" name="LWAVE"> T  </i>
  <i type="logical" name="LCHARG"> T  </i>
 </incar>
 <kpoints>
  <generation param="Gamma">
   <v type="int" name="divisions">      11       11       11 </v>
   <v name="usershift">      0.00000000       0.00000000       0.00000000 </v>
   <v name="genvec1">      0.09090909       0.00000000       0.00000000 </v>
   <v name="genvec2">      0.00000000       0.09090909       0.00000000 </v>
   <v name="genvec3">      0.00000000      -0.00000000       0.09090909 </v>
   <v name="shift">      0.00000000       0.00000000       0.00000000 </v>
  </generation>
  <varray name="kpointlist" >
   <v>       0.00000000       0.00000000       0.00000000 </v>
   <v>       0.09090909       0.00000000       0.00000000 </v>
   <v>       0.18181818       0.00000000       0.00000000 </v>
   <v>       0.27272727       0.00000000       0.00000000 </v>
   <v>       0.36363636       0.00000000       0.00000000 </v>
   <v>       0.45454545       0.00000000       0.00000000 </v>
   <v>       0.09090909       0.09090909       0.00000000 </v>
   <v>       0.18181818       0.09090909       0.00000000 </v>
   <v>       0.27272727       0.09090909       0.00000000 </v>
   <v>       0.36363636       0.09090909       0.00000000 </v>
   <v>       0.45454545       0.09090909       0.00000000 </v>
   <v>      -0.45454545       0.09090909       0.00000000 </v>
   <v>      -0.36363636       0.09090909       0.00000000 </v>
   <v>      -0.27272727       0.09090909       0.00000000 </v>
   <v>      -0.18181818       0.09090909       0.00000000 </v>
   <v>      -0.09090909       0.09090909       0.00000000 </v>
   <v>       0.18181818       0.18181818       0.00000000 </v>
   <v>       0.27272727       0.18181818       0.00000000 </v>
   <v>       0.36363636       0.18181818       0.00000000 </v>
   <v>       0.45454545       0.18181818       0.00000000 </v>
   <v>      -0.45454545       0.18181818       0.00000000 </v>
   <v>      -0.36363636       0.18181818       0.00000000 </v>
   <v>      -0.27272727       0.18181818       0.00000000 </v>
   <v>      -0.18181818       0.18181818       0.00000000 </v>
   <v>       0.27272727       0.27272727       0.00000000 </v>
   <v>       0.36363636       0.27272727       0.00000000 </v>
   <v>       0.45454545       0.27272727       0.00000000 </v>
   <v>      -0.45454545       0.27272727       0.00000000 </v>
   <v>      -0.36363636       0.27272727       0.00000000 </v>
   <v>      -0.27272727       0.27272727       0.00000000 </v>
   <v>       0.36363636       0.36363636       0.00000000 </v>
   <v>       0.45454545       0.36363636       0.00000000 </v>
   <v>      -0.45454545       0.36363636       0.00000000 </v>
   <v>      -0.36363636       0.36363636       0.00000000 </v>
   <v>       0.45454545       0.45454545       0.00000000 </v>
   <v>      -0.45454545       0.45454545       0.00000000 </v>
   <v>       0.27272727       0.18181818       0.09090909 </v>
   <v>       0.36363636       0.18181818       0.09090909 </v>
   <v>       0.45454545       0.18181818       0.09090909 </v>
   <v>      -0.45454545       0.18181818       0.09090909 </v>
   <v>       0.36363636       0.27272727       0.09090909 </v>
   <v>       0.45454545       0.27272727       0.09090909 </v>
   <v>      -0.45454545       0.27272727       0.09090909 </v>
   <v>      -0.36363636       0.27272727       0.09090909 </v>
   <v>      -0.27272727       0.27272727       0.09090909 </v>
   <v>      -0.18181818       0.27272727       0.09090909 </v>
   <v>       0.45454545       0.36363636       0.09090909 </v>
   <v>      -0.45454545       0.36363636       0.09090909 </v>
   <v>      -0.36363636       0.36363636       0.09090909 </v>
   <v>      -0.27272727       0.36363636       0.09090909 </v>
   <v>      -0.45454545       0.45454545       0.09090909 </v>
   <v>      -0.36363636       0.45454545       0.09090909 </v>
   <v>      -0.45454545       0.36363636       0.18181818 </v>
   <v>      -0.36363636       0.36363636       0.18181818 </v>
   <v>      -0.36363636       0.45454545       0.18181818 </v>
   <v>      -0.27272727       0.45454545       0.18181818 </v>
  </varray>
  <varray name="weights" >
   <v>       0.00075131 </v>
   <v>       0.00601052 </v>
   <v>       0.00601052 </v>
   <v>       0.00601052 </v>
   <v>       0.00601052 </v>
   <v>       0.00601052 </v>
   <v>       0.00450789 </v>
   <v>       0.01803156 </v>
   <v>       0.01803156 </v>
   <v>       0.01803156 </v>
   <v>       0.01803156 </v>
   <v>       0.01803156 </v>
   <v>       0.01803156 </v>
   <v>       0.01803156 </v>
   <v>       0.01803156 </v>
   <v>       0.00901578 </v>
   <v>       0.00450789 </v>
   <v>       0.01803156 </v>
   <v>       0.01803156 </v>
   <v>       0.01803156 </v>
   <v>       0.01803156 </v>
   <v>       0.01803156 </v>
   <v>       0.01803156 </v>
   <v>       0.00901578 </v>
   <v>       0.00450789 </v>
   <v>       0.01803156 </v>
   <v>       0.01803156 </v>
   <v>       0.01803156 </v>
   <v>       0.01803156 </v>
   <v>       0.00901578 </v>
   <v>       0.00450789 </v>
   <v>       0.01803156 </v>
   <v>       0.01803156 </v>
   <v>       0.00901578 </v>
   <v>       0.00450789 </v>
   <v>       0.00901578 </v>
   <v>       0.01803156 </v>
   <v>       0.03606311 </v>
   <v>       0.03606311 </v>
   <v>       0.03606311 </v>
   <v>       0.01803156 </v>
   <v>       0.03606311 </v>
   <v>       0.03606311 </v>
   <v>       0.03606311 </v>
   <v>       0.03606311 </v>
   <v>       0.01803156 </v>
   <v>       0.01803156 </v>
   <v>       0.03606311 </v>
   <v>       0.03606311 </v>
   <v>       0.01803156 </v>
   <v>       0.01803156 </v>
   <v>       0.01803156 </v>
   <v>       0.01803156 </v>
   <v>       0.03606311 </v>
   <v>       0.01803156 </v>
   <v>       0.01803156 </v>
  </varray>
 </kpoints>
 <parameters>
  <separator name="general" >
   <i type="string" name="SYSTEM"></i>
   <i type="logical" name="LCOMPAT"> F  </i>
  </separator>
  <separator name="electronic" >
   <i type="string" name="PREC">accura</i>
   <i name="ENMAX">    520.00000000</i>
   <i name="ENAUG">    575.89200000</i>
   <i name="EDIFF">      0.00000100</i>
   <i type="int" name="IALGO">    38</i>
   <i type="int" name="IWAVPR">    10</i>
   <i type="int" name="NBANDS">    20</i>
   <i name="NELECT">     18.00000000</i>
   <i type="int" name="TURBO">     0</i>
   <i type="int" name="IRESTART">     0</i>
   <i type="int" name="NREBOOT">     0</i>
   <i type="int" name="NMIN">     0</i>
   <i name="EREF">      0.00000000</i>
   <separator name="electronic smearing" >
    <i type="int" name="ISMEAR">     0</i>
    <i name="SIGMA">      0.01000000</i>
    <i name="KSPACING">      0.50000000</i>
    <i type="logical" name="KGAMMA"> T  </i>
   </separator>
   <separator name="electronic projectors" >
    <i type="logical" name="LREAL"> F  </i>
    <v name="ROPT">      0.00000000      0.00000000</v>
    <i type="int" name="LMAXPAW">  -100</i>
    <i type="int" name="LMAXMIX">     2</i>
    <i type="logical" name="NLSPLINE"> F  </i>
   </separator>
   <separator name="electronic startup" >
    <i type="int" name="ISTART">     0</i>
    <i type="int" name="ICHARG">     2</i>
    <i type="int" name="INIWAV">     1</i>
   </separator>
   <separator name="electronic spin" >
    <i type="int" name="ISPIN">     1</i>
    <i type="logical" name="LNONCOLLINEAR"> F  </i>
    <v name="MAGMOM">      1.00000000      1.00000000</v>
    <i name="NUPDOWN">     -1.00000000</i>
    <i type="logical" name="LSORBIT"> F  </i>
    <v name="SAXIS">      0.00000000      0.00000000      1.00000000</v>
    <i type="logical" name="LSPIRAL"> F  </i>
    <v name="QSPIRAL">      0.00000000      0.00000000      0.00000000</v>
    <i type="logical" name="LZEROZ"> F  </i>
   </separator>
   <separator name="electronic exchange-correlation" >
    <i type="logical" name="LASPH"> F  </i>
    <i type="logical" name="LMETAGGA"> F  </i>
   </separator>
   <separator name="electronic convergence" >
    <i type="int" name="NELM">    60</i>
    <i type="int" name="NELMDL">    -5</i>
    <i type="int" name="NELMIN">     2</i>
    <i name="ENINI">    520.00000000</i>
    <separator name="electronic convergence detail" >
     <i type="logical" name="LDIAG"> T  </i>
     <i type="logical" name="LSUBROT"> T  </i>
     <i name="WEIMIN">      0.00000000</i>
     <i name="EBREAK">      0.00000001</i>
     <i name="DEPER">      0.30000000</i>
     <i type="int" name="NRMM">     4</i>
     <i name="TIME">      0.40000000</i>
    </separator>
   </separator>
   <separator name="electronic mixer" >
    <i name="AMIX">      0.40000000</i>
    <i name="BMIX">      1.00000000</i>
    <i name="AMIN">      0.10000000</i>
    <i name="AMIX_MAG">      1.60000000</i>
    <i name="BMIX_MAG">      1.00000000</i>
    <separator name="electronic mixer details" >
     <i type="int" name="IMIX">     4</i>
     <i type="int" name="MAXMIX">   -45</i>
     <i name="WC">    100.00000000</i>
     <i type="int" name="INIMIX">     1</i>
     <i type="int" name="MIXPRE">     1</i>
     <i type="int" name="MREMOVE">     5</i>
    </separator>
   </separator>
   <separator name="electronic dipolcorrection" >
    <i type="logical" name="LDIPOL"> F  </i>
    <i type="logical" name="LMONO"> F  </i>
    <i type="int" name="IDIPOL">     0</i>
    <i name="EPSILON">      1.00000000</i>
    <v name="DIPOL">   -100.00000000   -100.00000000   -100.00000000</v>
    <i name="EFIELD">      0.00000000</i>
   </separator>
  </separator>
  <separator name="grids" >
   <i type="int" name="NGX">    36</i>
   <i type="int" name="NGY">    36</i>
   <i type="int" name="NGZ">    36</i>
   <i type="int" name="NGXF">    72</i>
   <i type="int" name="NGYF">    72</i>
   <i type="int" name="NGZF">    72</i>
   <i type="logical" name="ADDGRID"> F  </i>
  </separator>
  <separator name="ionic" >
   <i type="int" name="NSW">     0</i>
   <i type="int" name="IBRION">    -1</i>
   <i type="int" name="ISIF">     3</i>
   <i name="PSTRESS">      0.00000000</i>
   <i name="EDIFFG">      0.00001000</i>
   <i type="int" name="NFREE">     0</i>
   <i name="POTIM">      0.50000000</i>
   <i name="SMASS">     -3.00000000</i>
   <i name="SCALEE">      1.00000000</i>
  </separator>
  <separator name="ionic md" >
   <i name="TEBEG">      0.00010000</i>
   <i name="TEEND">      0.00010000</i>
   <i type="int" name="NBLOCK">     1</i>
   <i type="int" name="KBLOCK">     1</i>
   <i type="int" name="NPACO">   256</i>
   <i name="APACO">     16.00000000</i>
  </separator>
  <separator name="symmetry" >
   <i type="int" name="ISYM">     1</i>
   <i name="SYMPREC">      0.00001000</i>
  </separator>
  <separator name="dos" >
   <i type="logical" name="LORBIT"> F  </i>
   <v name="RWIGS">     -1.00000000     -1.00000000</v>
   <i type="int" name="NEDOS">  5000</i>
   <i name="EMIN">    -20.00000000</i>
   <i name="EMAX">     20.00000000</i>
   <i name="EFERMI">      0.00000000</i>
  </separator>
  <separator name="writing" >
   <i type="int" name="NWRITE">     2</i>
   <i type="logical" name="LWAVE"> T  </i>
   <i type="logical" name="LCHARG"> T  </i>
   <i type="logical" name="LPARD"> F  </i>
   <i type="logical" name="LVTOT"> F  </i>
   <i type="logical" name="LVHAR"> F  </i>
   <i type="logical" name="LELF"> F  </i>
   <i type="logical" name="LOPTICS"> F  </i>
   <v name="STM">      0.00000000      0.00000000      0.00000000      0.00000000      0.00000000      0.00000000      0.00000000</v>
  </separator>
  <separator name="performance" >
   <i type="int" name="NPAR">    20</i>
   <i type="int" name="NSIM">     4</i>
   <i type="int" name="NBLK">    -1</i>
   <i type="logical" name="LPLANE"> T  </i>
   <i type="logical" name="LSCALAPACK"> T  </i>
   <i type="logical" name="LSCAAWARE"> F  </i>
   <i type="logical" name="LSCALU"> F  </i>
   <i type="logical" name="LASYNC"> F  </i>
   <i type="logical" name="LORBITALREAL"> F  </i>
  </separator>
  <separator name="miscellaneous" >
   <i type="int" name="IDIOT">     3</i>
   <i type="logical" name="LMUSIC"> F  </i>
   <v name="POMASS">     65.39000000    127.60000000</v>
   <v name="DARWINR">      0.00000000      0.00000000</v>
   <v name="DARWINV">      1.00000000      1.00000000</v>
   <i type="logical" name="LCORR"> T  </i>
  </separator>
  <i type="logical" name="GGA_COMPAT"> T  </i>
  <i type="logical" name="LBERRY"> F  </i>
  <i type="int" name="ICORELEVEL">     0</i>
  <i type="logical" name="LDAU"> F  </i>
  <i type="int" name="I_CONSTRAINED_M">     0</i>
  <separator name="electronic exchange-correlation" >
   <i type="string" name="GGA">--</i>
   <i type="int" name="VOSKOWN">     0</i>
   <i type="logical" name="LHFCALC"> F  </i>
   <i type="string" name="PRECFOCK"></i>
   <i type="logical" name="LSYMGRAD"> F  </i>
   <i type="logical" name="LHFONE"> F  </i>
   <i type="logical" name="LRHFCALC"> F  </i>
   <i type="logical" name="LTHOMAS"> F  </i>
   <i type="logical" name="LMODELHF"> F  </i>
   <i name="ENCUT4O">     -1.00000000</i>
   <i type="int" name="EXXOEP">     0</i>
   <i type="int" name="FOURORBIT">     0</i>
   <i name="AEXX">      0.00000000</i>
   <i name="HFALPHA">      0.00000000</i>
   <i name="MCALPHA">      0.00000000</i>
   <i name="ALDAX">      1.00000000</i>
   <i name="AGGAX">      1.00000000</i>
   <i name="ALDAC">      1.00000000</i>
   <i name="AGGAC">      1.00000000</i>
   <i type="int" name="NKREDX">     1</i>
   <i type="int" name="NKREDY">     1</i>
   <i type="int" name="NKREDZ">     1</i>
   <i type="logical" name="SHIFTRED"> F  </i>
   <i type="logical" name="ODDONLY"> F  </i>
   <i type="logical" name="EVENONLY"> F  </i>
   <i type="int" name="LMAXFOCK">     0</i>
   <i type="int" name="NMAXFOCKAE">     0</i>
   <i type="logical" name="LFOCKAEDFT"> F  </i>
   <i name="HFSCREEN">      0.00000000</i>
   <i name="HFSCREENC">      0.00000000</i>
   <i type="int" name="NBANDSGWLOW">     0</i>
  </separator>
  <separator name="vdW DFT" >
   <i type="logical" name="LUSE_VDW"> F  </i>
   <i name="Zab_VDW">     -0.84910000</i>
   <i name="PARAM1">      0.12340000</i>
   <i name="PARAM2">      1.00000000</i>
   <i name="PARAM3">      0.00000000</i>
  </separator>
  <separator name="model GW" >
   <i type="int" name="MODEL_GW">     0</i>
   <i name="MODEL_EPS0">     17.74368382</i>
   <i name="MODEL_ALPHA">      1.00000000</i>
  </separator>
  <separator name="linear response parameters" >
   <i type="logical" name="LEPSILON"> F  </i>
   <i type="logical" name="LRPA"> F  </i>
   <i type="logical" name="LNABLA"> F  </i>
   <i type="logical" name="LVEL"> F  </i>
   <i type="int" name="KINTER">     0</i>
   <i name="CSHIFT">      0.10000000</i>
   <i name="OMEGAMAX">     -1.00000000</i>
   <i name="DEG_THRESHOLD">      0.00200000</i>
  </separator>
  <separator name="orbital magnetization" >
   <i type="logical" name="NUCIND"> F  </i>
   <v name="MAGPOS">      0.00000000      0.00000000      0.00000000</v>
   <i type="logical" name="LNICSALL"> T  </i>
   <i type="logical" name="ORBITALMAG"> F  </i>
   <i type="logical" name="LMAGBLOCH"> F  </i>
   <i type="logical" name="LCHIMAG"> F  </i>
   <i type="logical" name="LGAUGE"> T  </i>
   <i type="int" name="MAGATOM">     0</i>
   <v name="MAGDIPOL">      0.00000000      0.00000000      0.00000000</v>
   <v name="AVECCONST">      0.00000000      0.00000000      0.00000000</v>
  </separator>
  <separator name="response functions" >
   <i type="logical" name="LADDER"> F  </i>
   <i type="logical" name="LFXC"> F  </i>
   <i type="logical" name="LHARTREE"> T  </i>
   <i type="int" name="IBSE">     0</i>
   <i type="logical" name="LTCTE"> F  </i>
   <i type="logical" name="LTETE"> F  </i>
   <i type="logical" name="LTRIPLET"> F  </i>
   <i type="logical" name="LFXCEPS"> F  </i>
   <i type="logical" name="L2ORDER"> F  </i>
   <i type="logical" name="LUSEW"> F  </i>
   <i name="ENCUTGW">     -2.00000000</i>
   <i name="ENCUTGWSOFT">     -2.00000000</i>
   <i name="ENCUTLF">     -1.00000000</i>
   <i type="int" name="LMAXMP2">    -1</i>
   <i name="SCISSOR">      0.00000000</i>
   <i type="int" name="NOMEGA">     0</i>
   <i type="int" name="NOMEGAR">     0</i>
   <i type="int" name="NBANDSGW">    -1</i>
   <i type="int" name="NBANDSO">    -1</i>
   <i type="int" name="NBANDSV">    -1</i>
   <i type="int" name="NELM">     1</i>
   <i type="int" name="DIM">     3</i>
   <i type="int" name="ANTIRES">     0</i>
   <i name="OMEGAMAX">    -30.00000000</i>
   <i name="OMEGATL">   -200.00000000</i>
   <i type="int" name="OMEGAGRID">     0</i>
   <i name="CSHIFT">     -0.10000000</i>
   <i type="logical" name="SELFENERGY"> F  </i>
   <i type="logical" name="LSPECTRAL"> F  </i>
   <i type="logical" name="ODDONLYGW"> F  </i>
   <i type="logical" name="EVENONLYGW"> F  </i>
   <i type="int" name="NKREDLFX">     1</i>
   <i type="int" name="NKREDLFY">     1</i>
   <i type="int" name="NKREDLFZ">     1</i>
   <i type="int" name="MAXMEM">  1800</i>
   <i type="int" name="TELESCOPE">     0</i>
  </separator>
 </parameters>
 <atominfo>
  <atoms>       2 </atoms>
  <types>       2 </types>
  <array name="atoms" >
   <dimension dim="1">ion</dimension>
   <field type="string">element</field>
   <field type="int">atomtype</field>
   <set>
    <rc><c>Zn</c><c>   1</c></rc>
    <rc><c>Te</c><c>   2</c></rc>
   </set>
  </array>
  <array name="atomtypes" >
   <dimension dim="1">type</dimension>
   <field type="int">atomspertype</field>
   <field type="string">element</field>
   <field>mass</field>
   <field>valence</field>
   <field type="string">pseudopotential</field>
   <set>
    <rc><c>   1</c><c>Zn</c><c>     65.39000000</c><c>     12.00000000</c><c> PAW_PBE Zn 06Sep2000                   </c></rc>
    <rc><c>   1</c><c>Te</c><c>    127.60000000</c><c>      6.00000000</c><c> PAW_PBE Te 08Apr2002                   </c></rc>
   </set>
  </array>
 </atominfo>
 <structure name="initialpos" >
  <crystal>
   <varray name="basis" >
    <v>       3.78741700       0.00000000       2.18666600 </v>
    <v>       1.26247200       3.57081100       2.18666600 </v>
    <v>       0.00000000       0.00000000       4.37333300 </v>
   </varray>
   <i name="volume">     59.14561274 </i>
   <varray name="rec_basis" >
    <v>       0.26403219      -0.09334945       0.00000000 </v>
    <v>       0.00000000       0.28004843       0.00000000 </v>
    <v>      -0.13201606      -0.09334947       0.22865855 </v>
   </varray>
  </crystal>
  <varray name="positions" >
   <v>       0.00000000       0.00000000       0.00000000 </v>
   <v>       0.25000000       0.25000000       0.25000000 </v>
  </varray>
 </structure>
 <calculation>
  <scstep>
   <time name="dav">    0.86    0.87</time>
   <time name="total">    0.95    0.96</time>
   <energy>
    <i name="alphaZ">     41.44870044 </i>
    <i name="ewald">  -1095.15256513 </i>
    <i name="hartreedc">   -770.56142288 </i>
    <i name="XCdc">     28.71037720 </i>
    <i name="pawpsdc">   1425.90876659 </i>
    <i name="pawaedc">  -1564.99561147 </i>
    <i name="eentropy">     -0.00011740 </i>
    <i name="bandstr">     -8.29314035 </i>
    <i name="atom">   1972.36132945 </i>
    <i name="e_fr_energy">     29.42631645 </i>
    <i name="e_wo_entrp">     29.42643385 </i>
    <i name="e_0_energy">     29.42637515 </i>
   </energy>
  </scstep>
  <scstep>
   <time name="dav">    1.01    1.01</time>
   <time name="total">    1.01    1.01</time>
   <energy>
    <i name="e_fr_energy">     -4.93399599 </i>
    <i name="e_wo_entrp">     -4.93399599 </i>
    <i name="e_0_energy">     -4.93399599 </i>
   </energy>
  </scstep>
  <scstep>
   <time name="dav">    1.04    1.04</time>
   <time name="total">    1.05    1.05</time>
   <energy>
    <i name="e_fr_energy">     -5.51958459 </i>
    <i name="e_wo_entrp">     -5.51958459 </i>
    <i name="e_0_energy">     -5.51958459 </i>
   </energy>
  </scstep>
  <scstep>
   <time name="dav">    1.41    1.41</time>
   <time name="total">    1.41    1.41</time>
   <energy>
    <i name="e_fr_energy">     -5.52240270 </i>
    <i name="e_wo_entrp">     -5.52240270 </i>
    <i name="e_0_energy">     -5.52240270 </i>
   </energy>
  </scstep>
  <scstep>
   <time name="dav">    1.14    1.15</time>
   <time name="total">    1.27    1.28</time>
   <energy>
    <i name="e_fr_energy">     -5.52240679 </i>
    <i name="e_wo_entrp">     -5.52240679 </i>
    <i name="e_0_energy">     -5.52240679 </i>
   </energy>
  </scstep>
  <scstep>
   <time name="dav">    0.99    0.99</time>
   <time name="total">    1.13    1.14</time>
   <energy>
    <i name="e_fr_energy">     -5.36420549 </i>
    <i name="e_wo_entrp">     -5.36420549 </i>
    <i name="e_0_energy">     -5.36420549 </i>
   </energy>
  </scstep>
  <scstep>
   <time name="dav">    1.26    1.26</time>
   <time name="total">    1.40    1.40</time>
   <energy>
    <i name="e_fr_energy">     -5.35106716 </i>
    <i name="e_wo_entrp">     -5.35106716 </i>
    <i name="e_0_energy">     -5.35106716 </i>
   </energy>
  </scstep>
  <scstep>
   <time name="dav">    1.05    1.05</time>
   <time name="total">    1.20    1.20</time>
   <energy>
    <i name="e_fr_energy">     -5.35015850 </i>
    <i name="e_wo_entrp">     -5.35015850 </i>
    <i name="e_0_energy">     -5.35015850 </i>
   </energy>
  </scstep>
  <scstep>
   <time name="dav">    1.01    1.01</time>
   <time name="total">    1.16    1.16</time>
   <energy>
    <i name="e_fr_energy">     -5.35044032 </i>
    <i name="e_wo_entrp">     -5.35044032 </i>
    <i name="e_0_energy">     -5.35044032 </i>
   </energy>
  </scstep>
  <scstep>
   <time name="dav">    1.34    1.34</time>
   <time name="total">    1.49    1.49</time>
   <energy>
    <i name="e_fr_energy">     -5.35049561 </i>
    <i name="e_wo_entrp">     -5.35049561 </i>
    <i name="e_0_energy">     -5.35049561 </i>
   </energy>
  </scstep>
  <scstep>
   <time name="dav">    0.92    0.93</time>
   <time name="total">    1.06    1.08</time>
   <energy>
    <i name="e_fr_energy">     -5.35050135 </i>
    <i name="e_wo_entrp">     -5.35050135 </i>
    <i name="e_0_energy">     -5.35050135 </i>
   </energy>
  </scstep>
  <scstep>
   <time name="dav">    1.54    1.57</time>
   <time name="total">    1.57    1.60</time>
   <energy>
    <i name="alphaZ">     41.44870044 </i>
    <i name="ewald">  -1095.15256513 </i>
    <i name="hartreedc">   -761.72038178 </i>
    <i name="XCdc">     28.71366511 </i>
    <i name="pawpsdc">   1443.74149938 </i>
    <i name="pawaedc">  -1582.95707018 </i>
    <i name="eentropy">     -0.00000000 </i>
    <i name="bandstr">    -51.78567906 </i>
    <i name="atom">   1972.36132945 </i>
    <i name="e_fr_energy">     -5.35050177 </i>
    <i name="e_wo_entrp">     -5.35050177 </i>
    <i name="e_0_energy">     -5.35050177 </i>
   </energy>
  </scstep>
  <structure>
   <crystal>
    <varray name="basis" >
     <v>       3.78741700       0.00000000       2.18666600 </v>
     <v>       1.26247200       3.57081100       2.18666600 </v>
     <v>       0.00000000       0.00000000       4.37333300 </v>
    </varray>
    <i name="volume">     59.14561274 </i>
    <varray name="rec_basis" >
     <v>       0.26403219      -0.09334945       0.00000000 </v>
     <v>       0.00000000       0.28004843       0.00000000 </v>
     <v>      -0.13201606      -0.09334947       0.22865855 </v>
    </varray>
   </crystal>
   <varray name="positions" >
    <v>       0.00000000       0.00000000       0.00000000 </v>
    <v>       0.25000000       0.25000000       0.25000000 </v>
   </varray>
  </structure>
  <varray name="forces" >
   <v>       0.00000000       0.00000000      -0.00000000 </v>
   <v>      -0.00000000      -0.00000000       0.00000000 </v>
  </varray>
  <varray name="stress" >
   <v>       0.30861525      -0.00000003      -0.00000004 </v>
   <v>      -0.00000003       0.30861525      -0.00000003 </v>
   <v>      -0.00000004      -0.00000003       0.30861533 </v>
  </varray>
  <energy>
   <i name="e_fr_energy">     -5.35050177 </i>
   <i name="e_wo_entrp">     -5.35050177 </i>
   <i name="e_0_energy">     -0.00000000 </i>
  </energy>
  <time name="totalsc">   16.80   16.92</time>
  <eigenvalues>
   <array>
    <dimension dim="1">band</dimension>
    <dimension dim="2">kpoint</dimension>
    <dimension dim="3">spin</dimension>
    <field>eigene</field>
    <field>occ</field>
    <set>
     <set comment="spin 1">
      <set comment="kpoint 1">
       <r>   -8.7159    1.0000 </r>
       <r>   -3.9830    1.0000 </r>
       <r>   -3.9830    1.0000 </r>
       <r>   -3.9830    1.0000 </r>
       <r>   -3.7755    1.0000 </r>
       <r>   -3.7755    1.0000 </r>
       <r>    2.8128    1.0000 </r>
       <r>    2.8128    1.0000 </r>
       <r>    2.8128    1.0000 </r>
       <r>    3.8915    0.0000 </r>
       <r>    7.2463    0.0000 </r>
       <r>    7.2463    0.0000 </r>
       <r>    7.2463    0.0000 </r>
       <r>   10.0984    0.0000 </r>
       <r>   12.3269    0.0000 </r>
       <r>   12.3269    0.0000 </r>
       <r>   13.3914    0.0000 </r>
       <r>   13.3914    0.0000 </r>
       <r>   13.3914    0.0000 </r>
       <r>   16.1789    0.0000 </r>
      </set>
      <set comment="kpoint 2">
       <r>   -8.6631    1.0000 </r>
       <r>   -3.9783    1.0000 </r>
       <r>   -3.9783    1.0000 </r>
       <r>   -3.9773    1.0000 </r>
       <r>   -3.7761    1.0000 </r>
       <r>   -3.7761    1.0000 </r>
       <r>    1.9516    1.0000 </r>
       <r>    2.7278    1.0000 </r>
       <r>    2.7278    1.0000 </r>
       <r>    4.5151    0.0000 </r>
       <r>    7.2738    0.0000 </r>
       <r>    7.3827    0.0000 </r>
       <r>    7.3827    0.0000 </r>
       <r>   10.5773    0.0000 </r>
       <r>   11.8279    0.0000 </r>
       <r>   11.8279    0.0000 </r>
       <r>   13.0622    0.0000 </r>
       <r>   14.1813    0.0000 </r>
       <r>   14.1813    0.0000 </r>
       <r>   16.8265    0.0000 </r>
      </set>
      <set comment="kpoint 3">
       <r>   -8.5145    1.0000 </r>
       <r>   -3.9659    1.0000 </r>
       <r>   -3.9659    1.0000 </r>
       <r>   -3.9544    1.0000 </r>
       <r>   -3.7770    1.0000 </r>
       <r>   -3.7770    1.0000 </r>
       <r>    0.7088    1.0000 </r>
       <r>    2.5215    1.0000 </r>
       <r>    2.5215    1.0000 </r>
       <r>    4.9023    0.0000 </r>
       <r>    7.6821    0.0000 </r>
       <r>    7.6821    0.0000 </r>
       <r>    7.7936    0.0000 </r>
       <r>   11.3394    0.0000 </r>
       <r>   11.3915    0.0000 </r>
       <r>   11.3915    0.0000 </r>
       <r>   12.9466    0.0000 </r>
       <r>   15.5445    0.0000 </r>
       <r>   15.5445    0.0000 </r>
       <r>   18.2518    0.0000 </r>
      </set>
      <set comment="kpoint 4">
       <r>   -8.3020    1.0000 </r>
       <r>   -3.9513    1.0000 </r>
       <r>   -3.9513    1.0000 </r>
       <r>   -3.8980    1.0000 </r>
       <r>   -3.7762    1.0000 </r>
       <r>   -3.7762    1.0000 </r>
       <r>   -0.4565    1.0000 </r>
       <r>    2.2870    1.0000 </r>
       <r>    2.2870    1.0000 </r>
       <r>    4.8267    0.0000 </r>
       <r>    7.9021    0.0000 </r>
       <r>    7.9021    0.0000 </r>
       <r>    8.8978    0.0000 </r>
       <r>   11.2183    0.0000 </r>
       <r>   11.4989    0.0000 </r>
       <r>   11.4989    0.0000 </r>
       <r>   14.2029    0.0000 </r>
       <r>   17.0882    0.0000 </r>
       <r>   17.0882    0.0000 </r>
       <r>   18.7651    0.0000 </r>
      </set>
      <set comment="kpoint 5">
       <r>   -8.0843    1.0000 </r>
       <r>   -3.9398    1.0000 </r>
       <r>   -3.9398    1.0000 </r>
       <r>   -3.7912    1.0000 </r>
       <r>   -3.7733    1.0000 </r>
       <r>   -3.7733    1.0000 </r>
       <r>   -1.4135    1.0000 </r>
       <r>    2.0969    1.0000 </r>
       <r>    2.0969    1.0000 </r>
       <r>    4.6650    0.0000 </r>
       <r>    7.9349    0.0000 </r>
       <r>    7.9349    0.0000 </r>
       <r>   10.0663    0.0000 </r>
       <r>   11.0969    0.0000 </r>
       <r>   12.2117    0.0000 </r>
       <r>   12.2117    0.0000 </r>
       <r>   15.4545    0.0000 </r>
       <r>   16.7253    0.0000 </r>
       <r>   16.7253    0.0000 </r>
       <r>   17.9998    0.0000 </r>
      </set>
      <set comment="kpoint 6">
       <r>   -7.9421    1.0000 </r>
       <r>   -3.9341    1.0000 </r>
       <r>   -3.9341    1.0000 </r>
       <r>   -3.7702    1.0000 </r>
       <r>   -3.7702    1.0000 </r>
       <r>   -3.6636    1.0000 </r>
       <r>   -2.0090    1.0000 </r>
       <r>    1.9928    1.0000 </r>
       <r>    1.9928    1.0000 </r>
       <r>    4.5662    0.0000 </r>
       <r>    7.8981    0.0000 </r>
       <r>    7.8981    0.0000 </r>
       <r>   10.3620    0.0000 </r>
       <r>   11.9149    0.0000 </r>
       <r>   13.2926    0.0000 </r>
       <r>   13.2926    0.0000 </r>
       <r>   14.7791    0.0000 </r>
       <r>   15.1621    0.0000 </r>
       <r>   15.1621    0.0000 </r>
       <r>   19.1499    0.0000 </r>
      </set>
      <set comment="kpoint 7">
       <r>   -8.6455    1.0000 </r>
       <r>   -3.9807    1.0000 </r>
       <r>   -3.9740    1.0000 </r>
       <r>   -3.9740    1.0000 </r>
       <r>   -3.7787    1.0000 </r>
       <r>   -3.7739    1.0000 </r>
       <r>    1.9217    1.0000 </r>
       <r>    2.5689    1.0000 </r>
       <r>    2.5689    1.0000 </r>
       <r>    4.7759    0.0000 </r>
       <r>    6.8896    0.0000 </r>
       <r>    7.6177    0.0000 </r>
       <r>    7.6177    0.0000 </r>
       <r>   10.6921    0.0000 </r>
       <r>   11.1804    0.0000 </r>
       <r>   12.4263    0.0000 </r>
       <r>   13.6256    0.0000 </r>
       <r>   13.6256    0.0000 </r>
       <r>   14.2241    0.0000 </r>
       <r>   17.1347    0.0000 </r>
      </set>
      <set comment="kpoint 8">
       <r>   -8.5285    1.0000 </r>
       <r>   -3.9721    1.0000 </r>
       <r>   -3.9617    1.0000 </r>
       <r>   -3.9585    1.0000 </r>
       <r>   -3.7814    1.0000 </r>
       <r>   -3.7727    1.0000 </r>
       <r>    0.9833    1.0000 </r>
       <r>    2.3191    1.0000 </r>
       <r>    2.3906    1.0000 </r>
       <r>    5.2561    0.0000 </r>
       <r>    6.8468    0.0000 </r>
       <r>    8.0100    0.0000 </r>
       <r>    8.0516    0.0000 </r>
       <r>   10.5807    0.0000 </r>
       <r>   11.5655    0.0000 </r>
       <r>   12.1648    0.0000 </r>
       <r>   13.3630    0.0000 </r>
       <r>   14.5450    0.0000 </r>
       <r>   15.3708    0.0000 </r>
       <r>   18.3621    0.0000 </r>
      </set>
      <set comment="kpoint 9">
       <r>   -8.3363    1.0000 </r>
       <r>   -3.9564    1.0000 </r>
       <r>   -3.9464    1.0000 </r>
       <r>   -3.9180    1.0000 </r>
       <r>   -3.7813    1.0000 </r>
       <r>   -3.7714    1.0000 </r>
       <r>   -0.1250    1.0000 </r>
       <r>    2.0766    1.0000 </r>
       <r>    2.1354    1.0000 </r>
       <r>    5.3128    0.0000 </r>
       <r>    7.2604    0.0000 </r>
       <r>    8.3075    0.0000 </r>
       <r>    8.5658    0.0000 </r>
       <r>   10.7114    0.0000 </r>
       <r>   11.9489    0.0000 </r>
       <r>   12.1211    0.0000 </r>
       <r>   13.8877    0.0000 </r>
       <r>   15.9921    0.0000 </r>
       <r>   16.9657    0.0000 </r>
       <r>   18.6369    0.0000 </r>
      </set>
      <set comment="kpoint 10">
       <r>   -8.1176    1.0000 </r>
       <r>   -3.9425    1.0000 </r>
       <r>   -3.9339    1.0000 </r>
       <r>   -3.8357    1.0000 </r>
       <r>   -3.7715    1.0000 </r>
       <r>   -3.7694    1.0000 </r>
       <r>   -1.1156    1.0000 </r>
       <r>    1.8544    1.0000 </r>
       <r>    1.9073    1.0000 </r>
       <r>    5.1767    0.0000 </r>
       <r>    7.5749    0.0000 </r>
       <r>    8.3468    0.0000 </r>
       <r>    9.2815    0.0000 </r>
       <r>   11.3518    0.0000 </r>
       <r>   11.9572    0.0000 </r>
       <r>   12.6784    0.0000 </r>
       <r>   15.1323    0.0000 </r>
       <r>   16.5743    0.0000 </r>
       <r>   17.3405    0.0000 </r>
       <r>   17.8527    0.0000 </r>
      </set>
      <set comment="kpoint 11">
       <r>   -7.9463    1.0000 </r>
       <r>   -3.9339    1.0000 </r>
       <r>   -3.9275    1.0000 </r>
       <r>   -3.7831    1.0000 </r>
       <r>   -3.7685    1.0000 </r>
       <r>   -3.6884    1.0000 </r>
       <r>   -1.8270    1.0000 </r>
       <r>    1.6290    1.0000 </r>
       <r>    1.8450    1.0000 </r>
       <r>    5.0614    0.0000 </r>
       <r>    7.6407    0.0000 </r>
       <r>    8.2312    0.0000 </r>
       <r>   10.2129    0.0000 </r>
       <r>   11.5423    0.0000 </r>
       <r>   12.9070    0.0000 </r>
       <r>   13.5989    0.0000 </r>
       <r>   14.6274    0.0000 </r>
       <r>   15.0536    0.0000 </r>
       <r>   17.0253    0.0000 </r>
       <r>   18.6340    0.0000 </r>
      </set>
      <set comment="kpoint 12">
       <r>   -7.8968    1.0000 </r>
       <r>   -3.9307    1.0000 </r>
       <r>   -3.9274    1.0000 </r>
       <r>   -3.7751    1.0000 </r>
       <r>   -3.7710    1.0000 </r>
       <r>   -3.6334    1.0000 </r>
       <r>   -2.0381    1.0000 </r>
       <r>    1.5048    1.0000 </r>
       <r>    1.8988    1.0000 </r>
       <r>    5.0276    0.0000 </r>
       <r>    7.7060    0.0000 </r>
       <r>    8.1112    0.0000 </r>
       <r>   10.5970    0.0000 </r>
       <r>   11.9203    0.0000 </r>
       <r>   13.0948    0.0000 </r>
       <r>   13.1872    0.0000 </r>
       <r>   14.6168    0.0000 </r>
       <r>   15.4285    0.0000 </r>
       <r>   15.8694    0.0000 </r>
       <r>   19.4224    0.0000 </r>
      </set>
      <set comment="kpoint 13">
       <r>   -7.9940    1.0000 </r>
       <r>   -3.9333    1.0000 </r>
       <r>   -3.9326    1.0000 </r>
       <r>   -3.7807    1.0000 </r>
       <r>   -3.7763    1.0000 </r>
       <r>   -3.7279    1.0000 </r>
       <r>   -1.6297    1.0000 </r>
       <r>    1.5049    1.0000 </r>
       <r>    2.0579    1.0000 </r>
       <r>    5.0854    0.0000 </r>
       <r>    7.8392    0.0000 </r>
       <r>    8.0308    0.0000 </r>
       <r>   10.1215    0.0000 </r>
       <r>   11.5637    0.0000 </r>
       <r>   11.8960    0.0000 </r>
       <r>   13.6391    0.0000 </r>
       <r>   14.4910    0.0000 </r>
       <r>   16.4361    0.0000 </r>
       <r>   16.9869    0.0000 </r>
       <r>   18.0739    0.0000 </r>
      </set>
      <set comment="kpoint 14">
       <r>   -8.1906    1.0000 </r>
       <r>   -3.9449    1.0000 </r>
       <r>   -3.9401    1.0000 </r>
       <r>   -3.8644    1.0000 </r>
       <r>   -3.7808    1.0000 </r>
       <r>   -3.7679    1.0000 </r>
       <r>   -0.8065    1.0000 </r>
       <r>    1.6387    1.0000 </r>
       <r>    2.2905    1.0000 </r>
       <r>    5.2093    0.0000 </r>
       <r>    7.9236    0.0000 </r>
       <r>    7.9241    0.0000 </r>
       <r>    9.0816    0.0000 </r>
       <r>   11.0646    0.0000 </r>
       <r>   11.5760    0.0000 </r>
       <r>   12.7265    0.0000 </r>
       <r>   14.6910    0.0000 </r>
       <r>   16.6597    0.0000 </r>
       <r>   17.1451    0.0000 </r>
       <r>   18.2698    0.0000 </r>
      </set>
      <set comment="kpoint 15">
       <r>   -8.4074    1.0000 </r>
       <r>   -3.9598    1.0000 </r>
       <r>   -3.9533    1.0000 </r>
       <r>   -3.9350    1.0000 </r>
       <r>   -3.7816    1.0000 </r>
       <r>   -3.7723    1.0000 </r>
       <r>    0.2261    1.0000 </r>
       <r>    1.9058    1.0000 </r>
       <r>    2.5383    1.0000 </r>
       <r>    5.2841    0.0000 </r>
       <r>    7.5491    0.0000 </r>
       <r>    7.6921    0.0000 </r>
       <r>    8.4387    0.0000 </r>
       <r>   10.8168    0.0000 </r>
       <r>   11.4915    0.0000 </r>
       <r>   12.1759    0.0000 </r>
       <r>   13.6316    0.0000 </r>
       <r>   15.2451    0.0000 </r>
       <r>   16.8632    0.0000 </r>
       <r>   18.6420    0.0000 </r>
      </set>
      <set comment="kpoint 16">
       <r>   -8.5783    1.0000 </r>
       <r>   -3.9727    1.0000 </r>
       <r>   -3.9694    1.0000 </r>
       <r>   -3.9657    1.0000 </r>
       <r>   -3.7792    1.0000 </r>
       <r>   -3.7743    1.0000 </r>
       <r>    1.2619    1.0000 </r>
       <r>    2.3081    1.0000 </r>
       <r>    2.7137    1.0000 </r>
       <r>    5.0072    0.0000 </r>
       <r>    7.1816    0.0000 </r>
       <r>    7.4342    0.0000 </r>
       <r>    7.9563    0.0000 </r>
       <r>   11.1376    0.0000 </r>
       <r>   11.1797    0.0000 </r>
       <r>   11.7200    0.0000 </r>
       <r>   13.6113    0.0000 </r>
       <r>   13.9024    0.0000 </r>
       <r>   15.3971    0.0000 </r>
       <r>   17.7418    0.0000 </r>
      </set>
      <set comment="kpoint 17">
       <r>   -8.4465    1.0000 </r>
       <r>   -3.9698    1.0000 </r>
       <r>   -3.9486    1.0000 </r>
       <r>   -3.9486    1.0000 </r>
       <r>   -3.7850    1.0000 </r>
       <r>   -3.7695    1.0000 </r>
       <r>    0.7297    1.0000 </r>
       <r>    2.0330    1.0000 </r>
       <r>    2.0330    1.0000 </r>
       <r>    5.6111    0.0000 </r>
       <r>    6.4636    0.0000 </r>
       <r>    8.5321    0.0000 </r>
       <r>    8.5321    0.0000 </r>
       <r>    9.9815    0.0000 </r>
       <r>   12.1571    0.0000 </r>
       <r>   12.7233    0.0000 </r>
       <r>   14.3279    0.0000 </r>
       <r>   14.3279    0.0000 </r>
       <r>   15.0246    0.0000 </r>
       <r>   19.4123    0.0000 </r>
      </set>
      <set comment="kpoint 18">
       <r>   -8.2853    1.0000 </r>
       <r>   -3.9547    1.0000 </r>
       <r>   -3.9317    1.0000 </r>
       <r>   -3.9232    1.0000 </r>
       <r>   -3.7838    1.0000 </r>
       <r>   -3.7671    1.0000 </r>
       <r>   -0.0267    1.0000 </r>
       <r>    1.7265    1.0000 </r>
       <r>    1.7683    1.0000 </r>
       <r>    5.6984    0.0000 </r>
       <r>    6.5789    0.0000 </r>
       <r>    8.7557    0.0000 </r>
       <r>    8.9922    0.0000 </r>
       <r>   10.3193    0.0000 </r>
       <r>   12.7901    0.0000 </r>
       <r>   12.9201    0.0000 </r>
       <r>   14.3391    0.0000 </r>
       <r>   15.3119    0.0000 </r>
       <r>   16.3570    0.0000 </r>
       <r>   18.6529    0.0000 </r>
      </set>
      <set comment="kpoint 19">
       <r>   -8.0843    1.0000 </r>
       <r>   -3.9383    1.0000 </r>
       <r>   -3.9173    1.0000 </r>
       <r>   -3.8682    1.0000 </r>
       <r>   -3.7656    1.0000 </r>
       <r>   -3.7654    1.0000 </r>
       <r>   -0.8764    1.0000 </r>
       <r>    1.3447    1.0000 </r>
       <r>    1.5925    1.0000 </r>
       <r>    5.7079    0.0000 </r>
       <r>    7.0488    0.0000 </r>
       <r>    8.6372    0.0000 </r>
       <r>    9.1430    0.0000 </r>
       <r>   11.5148    0.0000 </r>
       <r>   13.0118    0.0000 </r>
       <r>   13.2069    0.0000 </r>
       <r>   15.0488    0.0000 </r>
       <r>   16.4991    0.0000 </r>
       <r>   17.0431    0.0000 </r>
       <r>   17.2695    0.0000 </r>
      </set>
      <set comment="kpoint 20">
       <r>   -7.9063    1.0000 </r>
       <r>   -3.9287    1.0000 </r>
       <r>   -3.9096    1.0000 </r>
       <r>   -3.8139    1.0000 </r>
       <r>   -3.7659    1.0000 </r>
       <r>   -3.6925    1.0000 </r>
       <r>   -1.5803    1.0000 </r>
       <r>    0.9851    1.0000 </r>
       <r>    1.5398    1.0000 </r>
       <r>    5.6566    0.0000 </r>
       <r>    7.5004    0.0000 </r>
       <r>    9.0187    0.0000 </r>
       <r>    9.0333    0.0000 </r>
       <r>   12.2854    0.0000 </r>
       <r>   13.3026    0.0000 </r>
       <r>   13.9361    0.0000 </r>
       <r>   14.6389    0.0000 </r>
       <r>   15.1333    0.0000 </r>
       <r>   17.7683    0.0000 </r>
       <r>   18.6181    0.0000 </r>
      </set>
      <set comment="kpoint 21">
       <r>   -7.8220    1.0000 </r>
       <r>   -3.9245    1.0000 </r>
       <r>   -3.9094    1.0000 </r>
       <r>   -3.7911    1.0000 </r>
       <r>   -3.7703    1.0000 </r>
       <r>   -3.6100    1.0000 </r>
       <r>   -1.9239    1.0000 </r>
       <r>    0.7349    1.0000 </r>
       <r>    1.6185    1.0000 </r>
       <r>    5.6540    0.0000 </r>
       <r>    7.6426    0.0000 </r>
       <r>    8.8103    0.0000 </r>
       <r>   10.0238    0.0000 </r>
       <r>   11.8851    0.0000 </r>
       <r>   13.0443    0.0000 </r>
       <r>   13.2647    0.0000 </r>
       <r>   15.0874    0.0000 </r>
       <r>   15.7906    0.0000 </r>
       <r>   17.7400    0.0000 </r>
       <r>   19.1721    0.0000 </r>
      </set>
      <set comment="kpoint 22">
       <r>   -7.8707    1.0000 </r>
       <r>   -3.9239    1.0000 </r>
       <r>   -3.9162    1.0000 </r>
       <r>   -3.7852    1.0000 </r>
       <r>   -3.7775    1.0000 </r>
       <r>   -3.6591    1.0000 </r>
       <r>   -1.7283    1.0000 </r>
       <r>    0.6457    1.0000 </r>
       <r>    1.8138    1.0000 </r>
       <r>    5.7233    0.0000 </r>
       <r>    7.7763    0.0000 </r>
       <r>    8.6030    0.0000 </r>
       <r>   10.0234    0.0000 </r>
       <r>   11.7765    0.0000 </r>
       <r>   11.9261    0.0000 </r>
       <r>   13.3694    0.0000 </r>
       <r>   15.4878    0.0000 </r>
       <r>   16.9494    0.0000 </r>
       <r>   17.3304    0.0000 </r>
       <r>   17.9104    0.0000 </r>
      </set>
      <set comment="kpoint 23">
       <r>   -8.0289    1.0000 </r>
       <r>   -3.9293    1.0000 </r>
       <r>   -3.9274    1.0000 </r>
       <r>   -3.8183    1.0000 </r>
       <r>   -3.7832    1.0000 </r>
       <r>   -3.7466    1.0000 </r>
       <r>   -1.1249    1.0000 </r>
       <r>    0.7683    1.0000 </r>
       <r>    2.0857    1.0000 </r>
       <r>    5.8152    0.0000 </r>
       <r>    7.9642    0.0000 </r>
       <r>    8.3520    0.0000 </r>
       <r>    8.9129    0.0000 </r>
       <r>   10.8973    0.0000 </r>
       <r>   12.5878    0.0000 </r>
       <r>   13.9841    0.0000 </r>
       <r>   14.5251    0.0000 </r>
       <r>   15.7182    0.0000 </r>
       <r>   17.6050    0.0000 </r>
       <r>   18.9614    0.0000 </r>
      </set>
      <set comment="kpoint 24">
       <r>   -8.2302    1.0000 </r>
       <r>   -3.9458    1.0000 </r>
       <r>   -3.9374    1.0000 </r>
       <r>   -3.8923    1.0000 </r>
       <r>   -3.7844    1.0000 </r>
       <r>   -3.7657    1.0000 </r>
       <r>   -0.3984    1.0000 </r>
       <r>    1.1833    1.0000 </r>
       <r>    2.3621    1.0000 </r>
       <r>    5.7464    0.0000 </r>
       <r>    7.7461    0.0000 </r>
       <r>    7.9944    0.0000 </r>
       <r>    8.4972    0.0000 </r>
       <r>   10.5952    0.0000 </r>
       <r>   12.3512    0.0000 </r>
       <r>   12.9784    0.0000 </r>
       <r>   14.3453    0.0000 </r>
       <r>   15.6926    0.0000 </r>
       <r>   16.7731    0.0000 </r>
       <r>   18.3550    0.0000 </r>
      </set>
      <set comment="kpoint 25">
       <r>   -8.1599    1.0000 </r>
       <r>   -3.9437    1.0000 </r>
       <r>   -3.9125    1.0000 </r>
       <r>   -3.9125    1.0000 </r>
       <r>   -3.7791    1.0000 </r>
       <r>   -3.7637    1.0000 </r>
       <r>   -0.3717    1.0000 </r>
       <r>    1.4770    1.0000 </r>
       <r>    1.4770    1.0000 </r>
       <r>    5.4261    0.0000 </r>
       <r>    6.3477    0.0000 </r>
       <r>    9.7104    0.0000 </r>
       <r>    9.7104    0.0000 </r>
       <r>   10.0862    0.0000 </r>
       <r>   13.2124    0.0000 </r>
       <r>   13.8316    0.0000 </r>
       <r>   15.4883    0.0000 </r>
       <r>   15.4883    0.0000 </r>
       <r>   15.9891    0.0000 </r>
       <r>   18.4702    0.0000 </r>
      </set>
      <set comment="kpoint 26">
       <r>   -7.9913    1.0000 </r>
       <r>   -3.9276    1.0000 </r>
       <r>   -3.8955    1.0000 </r>
       <r>   -3.8830    1.0000 </r>
       <r>   -3.7615    1.0000 </r>
       <r>   -3.7525    1.0000 </r>
       <r>   -0.9431    1.0000 </r>
       <r>    1.1215    1.0000 </r>
       <r>    1.2775    1.0000 </r>
       <r>    5.4668    0.0000 </r>
       <r>    6.3059    0.0000 </r>
       <r>    9.5479    0.0000 </r>
       <r>   10.1272    0.0000 </r>
       <r>   11.4054    0.0000 </r>
       <r>   13.6076    0.0000 </r>
       <r>   14.3730    0.0000 </r>
       <r>   15.6492    0.0000 </r>
       <r>   16.5048    0.0000 </r>
       <r>   16.8502    0.0000 </r>
       <r>   17.1753    0.0000 </r>
      </set>
      <set comment="kpoint 27">
       <r>   -7.8305    1.0000 </r>
       <r>   -3.9186    1.0000 </r>
       <r>   -3.8860    1.0000 </r>
       <r>   -3.8439    1.0000 </r>
       <r>   -3.7622    1.0000 </r>
       <r>   -3.6793    1.0000 </r>
       <r>   -1.4793    1.0000 </r>
       <r>    0.6361    1.0000 </r>
       <r>    1.2089    1.0000 </r>
       <r>    5.5730    0.0000 </r>
       <r>    6.8533    0.0000 </r>
       <r>    9.3174    0.0000 </r>
       <r>   10.1006    0.0000 </r>
       <r>   12.6362    0.0000 </r>
       <r>   14.2067    0.0000 </r>
       <r>   14.2933    0.0000 </r>
       <r>   15.1288    0.0000 </r>
       <r>   15.3344    0.0000 </r>
       <r>   17.5697    0.0000 </r>
       <r>   18.0146    0.0000 </r>
      </set>
      <set comment="kpoint 28">
       <r>   -7.7371    1.0000 </r>
       <r>   -3.9161    1.0000 </r>
       <r>   -3.8856    1.0000 </r>
       <r>   -3.8136    1.0000 </r>
       <r>   -3.7674    1.0000 </r>
       <r>   -3.5887    1.0000 </r>
       <r>   -1.8006    1.0000 </r>
       <r>    0.2203    1.0000 </r>
       <r>    1.2831    1.0000 </r>
       <r>    5.6422    0.0000 </r>
       <r>    7.7506    0.0000 </r>
       <r>    9.3839    0.0000 </r>
       <r>    9.8397    0.0000 </r>
       <r>   11.9673    0.0000 </r>
       <r>   13.1640    0.0000 </r>
       <r>   14.6578    0.0000 </r>
       <r>   15.3346    0.0000 </r>
       <r>   16.1097    0.0000 </r>
       <r>   18.7239    0.0000 </r>
       <r>   19.3758    0.0000 </r>
      </set>
      <set comment="kpoint 29">
       <r>   -7.7502    1.0000 </r>
       <r>   -3.9165    1.0000 </r>
       <r>   -3.8942    1.0000 </r>
       <r>   -3.7950    1.0000 </r>
       <r>   -3.7754    1.0000 </r>
       <r>   -3.5886    1.0000 </r>
       <r>   -1.7628    1.0000 </r>
       <r>    0.0210    1.0000 </r>
       <r>    1.4869    1.0000 </r>
       <r>    5.7873    0.0000 </r>
       <r>    8.2670    0.0000 </r>
       <r>    9.4764    0.0000 </r>
       <r>    9.9027    0.0000 </r>
       <r>   10.8551    0.0000 </r>
       <r>   11.9119    0.0000 </r>
       <r>   14.7215    0.0000 </r>
       <r>   16.2593    0.0000 </r>
       <r>   17.3799    0.0000 </r>
       <r>   17.6411    0.0000 </r>
       <r>   18.3491    0.0000 </r>
      </set>
      <set comment="kpoint 30">
       <r>   -7.8630    1.0000 </r>
       <r>   -3.9195    1.0000 </r>
       <r>   -3.9103    1.0000 </r>
       <r>   -3.7921    1.0000 </r>
       <r>   -3.7816    1.0000 </r>
       <r>   -3.6767    1.0000 </r>
       <r>   -1.4566    1.0000 </r>
       <r>    0.1734    1.0000 </r>
       <r>    1.7797    1.0000 </r>
       <r>    5.9453    0.0000 </r>
       <r>    8.3388    0.0000 </r>
       <r>    8.9642    0.0000 </r>
       <r>    9.1015    0.0000 </r>
       <r>   11.1267    0.0000 </r>
       <r>   11.8953    0.0000 </r>
       <r>   14.8549    0.0000 </r>
       <r>   15.0129    0.0000 </r>
       <r>   16.2287    0.0000 </r>
       <r>   18.7807    0.0000 </r>
       <r>   19.1095    0.0000 </r>
      </set>
      <set comment="kpoint 31">
       <r>   -7.8632    1.0000 </r>
       <r>   -3.9175    1.0000 </r>
       <r>   -3.8759    1.0000 </r>
       <r>   -3.8759    1.0000 </r>
       <r>   -3.7583    1.0000 </r>
       <r>   -3.7187    1.0000 </r>
       <r>   -1.2962    1.0000 </r>
       <r>    1.0475    1.0000 </r>
       <r>    1.0475    1.0000 </r>
       <r>    5.1582    0.0000 </r>
       <r>    5.8427    0.0000 </r>
       <r>   10.9897    0.0000 </r>
       <r>   10.9897    0.0000 </r>
       <r>   11.2361    0.0000 </r>
       <r>   13.8684    0.0000 </r>
       <r>   15.3049    0.0000 </r>
       <r>   16.6122    0.0000 </r>
       <r>   16.6122    0.0000 </r>
       <r>   17.0829    0.0000 </r>
       <r>   17.0829    0.0000 </r>
      </set>
      <set comment="kpoint 32">
       <r>   -7.7405    1.0000 </r>
       <r>   -3.9113    1.0000 </r>
       <r>   -3.8647    1.0000 </r>
       <r>   -3.8564    1.0000 </r>
       <r>   -3.7579    1.0000 </r>
       <r>   -3.6496    1.0000 </r>
       <r>   -1.6587    1.0000 </r>
       <r>    0.7190    1.0000 </r>
       <r>    0.9493    1.0000 </r>
       <r>    5.2788    0.0000 </r>
       <r>    5.8488    0.0000 </r>
       <r>   10.7813    0.0000 </r>
       <r>   11.2819    0.0000 </r>
       <r>   12.5645    0.0000 </r>
       <r>   14.3629    0.0000 </r>
       <r>   14.8336    0.0000 </r>
       <r>   15.4352    0.0000 </r>
       <r>   16.3867    0.0000 </r>
       <r>   17.3037    0.0000 </r>
       <r>   17.7186    0.0000 </r>
      </set>
      <set comment="kpoint 33">
       <r>   -7.6677    1.0000 </r>
       <r>   -3.9093    1.0000 </r>
       <r>   -3.8643    1.0000 </r>
       <r>   -3.8342    1.0000 </r>
       <r>   -3.7623    1.0000 </r>
       <r>   -3.5695    1.0000 </r>
       <r>   -1.8549    1.0000 </r>
       <r>    0.2289    1.0000 </r>
       <r>    1.0003    1.0000 </r>
       <r>    5.4041    0.0000 </r>
       <r>    6.6419    0.0000 </r>
       <r>   10.5179    0.0000 </r>
       <r>   11.0084    0.0000 </r>
       <r>   12.1663    0.0000 </r>
       <r>   13.4908    0.0000 </r>
       <r>   15.1664    0.0000 </r>
       <r>   16.0958    0.0000 </r>
       <r>   16.4924    0.0000 </r>
       <r>   17.9129    0.0000 </r>
       <r>   18.0608    0.0000 </r>
      </set>
      <set comment="kpoint 34">
       <r>   -7.6724    1.0000 </r>
       <r>   -3.9115    1.0000 </r>
       <r>   -3.8748    1.0000 </r>
       <r>   -3.8122    1.0000 </r>
       <r>   -3.7696    1.0000 </r>
       <r>   -3.5446    1.0000 </r>
       <r>   -1.8384    1.0000 </r>
       <r>   -0.1016    1.0000 </r>
       <r>    1.1918    1.0000 </r>
       <r>    5.5728    0.0000 </r>
       <r>    7.7881    0.0000 </r>
       <r>   10.3092    0.0000 </r>
       <r>   10.3754    0.0000 </r>
       <r>   10.8389    0.0000 </r>
       <r>   12.4407    0.0000 </r>
       <r>   15.9570    0.0000 </r>
       <r>   16.5423    0.0000 </r>
       <r>   17.2165    0.0000 </r>
       <r>   17.3965    0.0000 </r>
       <r>   18.4559    0.0000 </r>
      </set>
      <set comment="kpoint 35">
       <r>   -7.6675    1.0000 </r>
       <r>   -3.9106    1.0000 </r>
       <r>   -3.8525    1.0000 </r>
       <r>   -3.8525    1.0000 </r>
       <r>   -3.7552    1.0000 </r>
       <r>   -3.6056    1.0000 </r>
       <r>   -1.8904    1.0000 </r>
       <r>    0.8165    1.0000 </r>
       <r>    0.8165    1.0000 </r>
       <r>    5.1006    0.0000 </r>
       <r>    5.3982    0.0000 </r>
       <r>   12.1336    0.0000 </r>
       <r>   12.1336    0.0000 </r>
       <r>   12.4322    0.0000 </r>
       <r>   14.5485    0.0000 </r>
       <r>   15.1926    0.0000 </r>
       <r>   15.1926    0.0000 </r>
       <r>   15.4242    0.0000 </r>
       <r>   16.7103    0.0000 </r>
       <r>   18.9207    0.0000 </r>
      </set>
      <set comment="kpoint 36">
       <r>   -7.6399    1.0000 </r>
       <r>   -3.9088    1.0000 </r>
       <r>   -3.8523    1.0000 </r>
       <r>   -3.8459    1.0000 </r>
       <r>   -3.7569    1.0000 </r>
       <r>   -3.5709    1.0000 </r>
       <r>   -1.9587    1.0000 </r>
       <r>    0.5790    1.0000 </r>
       <r>    0.8345    1.0000 </r>
       <r>    5.2384    0.0000 </r>
       <r>    5.6397    0.0000 </r>
       <r>   11.7237    0.0000 </r>
       <r>   11.9756    0.0000 </r>
       <r>   12.6110    0.0000 </r>
       <r>   14.1196    0.0000 </r>
       <r>   14.8038    0.0000 </r>
       <r>   15.4916    0.0000 </r>
       <r>   16.1635    0.0000 </r>
       <r>   16.9458    0.0000 </r>
       <r>   18.6672    0.0000 </r>
      </set>
      <set comment="kpoint 37">
       <r>   -8.3892    1.0000 </r>
       <r>   -3.9610    1.0000 </r>
       <r>   -3.9464    1.0000 </r>
       <r>   -3.9369    1.0000 </r>
       <r>   -3.7837    1.0000 </r>
       <r>   -3.7700    1.0000 </r>
       <r>    0.3078    1.0000 </r>
       <r>    1.7530    1.0000 </r>
       <r>    2.2960    1.0000 </r>
       <r>    5.6505    0.0000 </r>
       <r>    6.8020    0.0000 </r>
       <r>    8.3116    0.0000 </r>
       <r>    8.4937    0.0000 </r>
       <r>   10.4151    0.0000 </r>
       <r>   12.1430    0.0000 </r>
       <r>   12.3918    0.0000 </r>
       <r>   14.0283    0.0000 </r>
       <r>   14.7289    0.0000 </r>
       <r>   16.5199    0.0000 </r>
       <r>   18.6578    0.0000 </r>
      </set>
      <set comment="kpoint 38">
       <r>   -8.1914    1.0000 </r>
       <r>   -3.9446    1.0000 </r>
       <r>   -3.9319    1.0000 </r>
       <r>   -3.8853    1.0000 </r>
       <r>   -3.7809    1.0000 </r>
       <r>   -3.7656    1.0000 </r>
       <r>   -0.5553    1.0000 </r>
       <r>    1.3142    1.0000 </r>
       <r>    2.0841    1.0000 </r>
       <r>    5.7692    0.0000 </r>
       <r>    7.1980    0.0000 </r>
       <r>    8.4277    0.0000 </r>
       <r>    8.7714    0.0000 </r>
       <r>   10.8577    0.0000 </r>
       <r>   12.4091    0.0000 </r>
       <r>   13.0945    0.0000 </r>
       <r>   14.4910    0.0000 </r>
       <r>   16.1074    0.0000 </r>
       <r>   16.8501    0.0000 </r>
       <r>   18.0785    0.0000 </r>
      </set>
      <set comment="kpoint 39">
       <r>   -7.9910    1.0000 </r>
       <r>   -3.9318    1.0000 </r>
       <r>   -3.9220    1.0000 </r>
       <r>   -3.8129    1.0000 </r>
       <r>   -3.7718    1.0000 </r>
       <r>   -3.7349    1.0000 </r>
       <r>   -1.3651    1.0000 </r>
       <r>    1.0646    1.0000 </r>
       <r>    1.8463    1.0000 </r>
       <r>    5.6959    0.0000 </r>
       <r>    7.4947    0.0000 </r>
       <r>    8.5545    0.0000 </r>
       <r>    9.2598    0.0000 </r>
       <r>   11.6417    0.0000 </r>
       <r>   12.4259    0.0000 </r>
       <r>   13.9721    0.0000 </r>
       <r>   14.4137    0.0000 </r>
       <r>   16.2938    0.0000 </r>
       <r>   17.2419    0.0000 </r>
       <r>   18.2330    0.0000 </r>
      </set>
      <set comment="kpoint 40">
       <r>   -7.8616    1.0000 </r>
       <r>   -3.9261    1.0000 </r>
       <r>   -3.9168    1.0000 </r>
       <r>   -3.7871    1.0000 </r>
       <r>   -3.7713    1.0000 </r>
       <r>   -3.6362    1.0000 </r>
       <r>   -1.8891    1.0000 </r>
       <r>    0.9568    1.0000 </r>
       <r>    1.6954    1.0000 </r>
       <r>    5.6301    0.0000 </r>
       <r>    7.4824    0.0000 </r>
       <r>    8.6153    0.0000 </r>
       <r>   10.1938    0.0000 </r>
       <r>   11.7515    0.0000 </r>
       <r>   12.8954    0.0000 </r>
       <r>   13.3923    0.0000 </r>
       <r>   14.7104    0.0000 </r>
       <r>   15.9183    0.0000 </r>
       <r>   17.4115    0.0000 </r>
       <r>   18.7249    0.0000 </r>
      </set>
      <set comment="kpoint 41">
       <r>   -8.1193    1.0000 </r>
       <r>   -3.9385    1.0000 </r>
       <r>   -3.9157    1.0000 </r>
       <r>   -3.8917    1.0000 </r>
       <r>   -3.7743    1.0000 </r>
       <r>   -3.7632    1.0000 </r>
       <r>   -0.5963    1.0000 </r>
       <r>    1.1989    1.0000 </r>
       <r>    1.6340    1.0000 </r>
       <r>    5.8224    0.0000 </r>
       <r>    6.5969    0.0000 </r>
       <r>    8.6852    0.0000 </r>
       <r>    9.6169    0.0000 </r>
       <r>   10.9252    0.0000 </r>
       <r>   13.1957    0.0000 </r>
       <r>   13.6914    0.0000 </r>
       <r>   14.8238    0.0000 </r>
       <r>   15.9739    0.0000 </r>
       <r>   16.8981    0.0000 </r>
       <r>   17.5406    0.0000 </r>
      </set>
      <set comment="kpoint 42">
       <r>   -7.9363    1.0000 </r>
       <r>   -3.9239    1.0000 </r>
       <r>   -3.9046    1.0000 </r>
       <r>   -3.8438    1.0000 </r>
       <r>   -3.7660    1.0000 </r>
       <r>   -3.7247    1.0000 </r>
       <r>   -1.2178    1.0000 </r>
       <r>    0.7707    1.0000 </r>
       <r>    1.4238    1.0000 </r>
       <r>    5.9853    0.0000 </r>
       <r>    7.0131    0.0000 </r>
       <r>    8.4528    0.0000 </r>
       <r>    9.9489    0.0000 </r>
       <r>   11.7970    0.0000 </r>
       <r>   13.5721    0.0000 </r>
       <r>   14.2765    0.0000 </r>
       <r>   14.7336    0.0000 </r>
       <r>   16.0584    0.0000 </r>
       <r>   17.0124    0.0000 </r>
       <r>   17.8929    0.0000 </r>
      </set>
      <set comment="kpoint 43">
       <r>   -7.7987    1.0000 </r>
       <r>   -3.9177    1.0000 </r>
       <r>   -3.8982    1.0000 </r>
       <r>   -3.8100    1.0000 </r>
       <r>   -3.7689    1.0000 </r>
       <r>   -3.6303    1.0000 </r>
       <r>   -1.7063    1.0000 </r>
       <r>    0.4647    1.0000 </r>
       <r>    1.3098    1.0000 </r>
       <r>    6.0208    0.0000 </r>
       <r>    7.5437    0.0000 </r>
       <r>    8.6663    0.0000 </r>
       <r>    9.9691    0.0000 </r>
       <r>   11.8701    0.0000 </r>
       <r>   13.7168    0.0000 </r>
       <r>   14.0362    0.0000 </r>
       <r>   14.6856    0.0000 </r>
       <r>   16.2120    0.0000 </r>
       <r>   17.8083    0.0000 </r>
       <r>   19.2026    0.0000 </r>
      </set>
      <set comment="kpoint 44">
       <r>   -7.7632    1.0000 </r>
       <r>   -3.9163    1.0000 </r>
       <r>   -3.8994    1.0000 </r>
       <r>   -3.7936    1.0000 </r>
       <r>   -3.7753    1.0000 </r>
       <r>   -3.5876    1.0000 </r>
       <r>   -1.8423    1.0000 </r>
       <r>    0.2953    1.0000 </r>
       <r>    1.3696    1.0000 </r>
       <r>    6.0901    0.0000 </r>
       <r>    7.6340    0.0000 </r>
       <r>    9.0958    0.0000 </r>
       <r>   10.2882    0.0000 </r>
       <r>   10.8435    0.0000 </r>
       <r>   13.1266    0.0000 </r>
       <r>   14.0610    0.0000 </r>
       <r>   15.1414    0.0000 </r>
       <r>   17.3051    0.0000 </r>
       <r>   18.0631    0.0000 </r>
       <r>   18.3949    0.0000 </r>
      </set>
      <set comment="kpoint 45">
       <r>   -7.8456    1.0000 </r>
       <r>   -3.9171    1.0000 </r>
       <r>   -3.9092    1.0000 </r>
       <r>   -3.8005    1.0000 </r>
       <r>   -3.7751    1.0000 </r>
       <r>   -3.6636    1.0000 </r>
       <r>   -1.5491    1.0000 </r>
       <r>    0.3246    1.0000 </r>
       <r>    1.5777    1.0000 </r>
       <r>    6.1881    0.0000 </r>
       <r>    7.6949    0.0000 </r>
       <r>    8.5458    0.0000 </r>
       <r>    9.8870    0.0000 </r>
       <r>   11.3809    0.0000 </r>
       <r>   12.3536    0.0000 </r>
       <r>   14.2336    0.0000 </r>
       <r>   15.5213    0.0000 </r>
       <r>   16.4778    0.0000 </r>
       <r>   17.4440    0.0000 </r>
       <r>   19.0533    0.0000 </r>
      </set>
      <set comment="kpoint 46">
       <r>   -8.0091    1.0000 </r>
       <r>   -3.9269    1.0000 </r>
       <r>   -3.9205    1.0000 </r>
       <r>   -3.8340    1.0000 </r>
       <r>   -3.7767    1.0000 </r>
       <r>   -3.7436    1.0000 </r>
       <r>   -1.0445    1.0000 </r>
       <r>    0.6500    1.0000 </r>
       <r>    1.8578    1.0000 </r>
       <r>    6.1655    0.0000 </r>
       <r>    7.4863    0.0000 </r>
       <r>    8.1543    0.0000 </r>
       <r>    9.3657    0.0000 </r>
       <r>   11.0053    0.0000 </r>
       <r>   13.1041    0.0000 </r>
       <r>   14.0293    0.0000 </r>
       <r>   14.9110    0.0000 </r>
       <r>   15.2579    0.0000 </r>
       <r>   17.5008    0.0000 </r>
       <r>   18.7122    0.0000 </r>
      </set>
      <set comment="kpoint 47">
       <r>   -7.8434    1.0000 </r>
       <r>   -3.9153    1.0000 </r>
       <r>   -3.8841    1.0000 </r>
       <r>   -3.8579    1.0000 </r>
       <r>   -3.7609    1.0000 </r>
       <r>   -3.6989    1.0000 </r>
       <r>   -1.3670    1.0000 </r>
       <r>    0.7937    1.0000 </r>
       <r>    1.0606    1.0000 </r>
       <r>    5.6260    0.0000 </r>
       <r>    6.2060    0.0000 </r>
       <r>    9.5357    0.0000 </r>
       <r>   10.9626    0.0000 </r>
       <r>   11.9880    0.0000 </r>
       <r>   14.2902    0.0000 </r>
       <r>   14.4454    0.0000 </r>
       <r>   15.7694    0.0000 </r>
       <r>   16.1996    0.0000 </r>
       <r>   16.7534    0.0000 </r>
       <r>   17.5794    0.0000 </r>
      </set>
      <set comment="kpoint 48">
       <r>   -7.7247    1.0000 </r>
       <r>   -3.9092    1.0000 </r>
       <r>   -3.8780    1.0000 </r>
       <r>   -3.8315    1.0000 </r>
       <r>   -3.7645    1.0000 </r>
       <r>   -3.6107    1.0000 </r>
       <r>   -1.7018    1.0000 </r>
       <r>    0.3714    1.0000 </r>
       <r>    0.9389    1.0000 </r>
       <r>    5.8502    0.0000 </r>
       <r>    6.7715    0.0000 </r>
       <r>    9.2852    0.0000 </r>
       <r>   11.0237    0.0000 </r>
       <r>   12.1665    0.0000 </r>
       <r>   14.0215    0.0000 </r>
       <r>   14.6504    0.0000 </r>
       <r>   15.5621    0.0000 </r>
       <r>   16.3653    0.0000 </r>
       <r>   17.3195    0.0000 </r>
       <r>   18.2157    0.0000 </r>
      </set>
      <set comment="kpoint 49">
       <r>   -7.6804    1.0000 </r>
       <r>   -3.9092    1.0000 </r>
       <r>   -3.8792    1.0000 </r>
       <r>   -3.8089    1.0000 </r>
       <r>   -3.7726    1.0000 </r>
       <r>   -3.5499    1.0000 </r>
       <r>   -1.8243    1.0000 </r>
       <r>    0.0102    1.0000 </r>
       <r>    1.0225    1.0000 </r>
       <r>    5.9776    0.0000 </r>
       <r>    7.7730    0.0000 </r>
       <r>    9.1871    0.0000 </r>
       <r>   10.2730    0.0000 </r>
       <r>   11.4667    0.0000 </r>
       <r>   13.2524    0.0000 </r>
       <r>   15.2909    0.0000 </r>
       <r>   15.6892    0.0000 </r>
       <r>   17.2455    0.0000 </r>
       <r>   17.8528    0.0000 </r>
       <r>   18.6619    0.0000 </r>
      </set>
      <set comment="kpoint 50">
       <r>   -7.7274    1.0000 </r>
       <r>   -3.9113    1.0000 </r>
       <r>   -3.8913    1.0000 </r>
       <r>   -3.7957    1.0000 </r>
       <r>   -3.7788    1.0000 </r>
       <r>   -3.5811    1.0000 </r>
       <r>   -1.7205    1.0000 </r>
       <r>   -0.0556    1.0000 </r>
       <r>    1.2606    1.0000 </r>
       <r>    6.1578    0.0000 </r>
       <r>    8.2549    0.0000 </r>
       <r>    8.7443    0.0000 </r>
       <r>   10.3262    0.0000 </r>
       <r>   10.8287    0.0000 </r>
       <r>   12.2741    0.0000 </r>
       <r>   15.6455    0.0000 </r>
       <r>   15.8351    0.0000 </r>
       <r>   16.8226    0.0000 </r>
       <r>   17.7954    0.0000 </r>
       <r>   18.4966    0.0000 </r>
      </set>
      <set comment="kpoint 51">
       <r>   -7.6637    1.0000 </r>
       <r>   -3.9074    1.0000 </r>
       <r>   -3.8611    1.0000 </r>
       <r>   -3.8419    1.0000 </r>
       <r>   -3.7593    1.0000 </r>
       <r>   -3.5844    1.0000 </r>
       <r>   -1.8676    1.0000 </r>
       <r>    0.6061    1.0000 </r>
       <r>    0.7158    1.0000 </r>
       <r>    5.5615    0.0000 </r>
       <r>    5.8213    0.0000 </r>
       <r>   10.7268    0.0000 </r>
       <r>   11.6855    0.0000 </r>
       <r>   12.7204    0.0000 </r>
       <r>   14.2305    0.0000 </r>
       <r>   14.7266    0.0000 </r>
       <r>   15.3541    0.0000 </r>
       <r>   16.6232    0.0000 </r>
       <r>   17.7081    0.0000 </r>
       <r>   17.8422    0.0000 </r>
      </set>
      <set comment="kpoint 52">
       <r>   -7.6416    1.0000 </r>
       <r>   -3.9058    1.0000 </r>
       <r>   -3.8652    1.0000 </r>
       <r>   -3.8269    1.0000 </r>
       <r>   -3.7655    1.0000 </r>
       <r>   -3.5426    1.0000 </r>
       <r>   -1.8953    1.0000 </r>
       <r>    0.2168    1.0000 </r>
       <r>    0.7717    1.0000 </r>
       <r>    5.7750    0.0000 </r>
       <r>    6.6531    0.0000 </r>
       <r>   10.4490    0.0000 </r>
       <r>   10.4653    0.0000 </r>
       <r>   12.5243    0.0000 </r>
       <r>   13.7147    0.0000 </r>
       <r>   15.0201    0.0000 </r>
       <r>   15.7747    0.0000 </r>
       <r>   17.5915    0.0000 </r>
       <r>   17.7695    0.0000 </r>
       <r>   18.2850    0.0000 </r>
      </set>
      <set comment="kpoint 53">
       <r>   -7.7916    1.0000 </r>
       <r>   -3.9092    1.0000 </r>
       <r>   -3.8974    1.0000 </r>
       <r>   -3.8193    1.0000 </r>
       <r>   -3.7697    1.0000 </r>
       <r>   -3.6459    1.0000 </r>
       <r>   -1.5407    1.0000 </r>
       <r>    0.3080    1.0000 </r>
       <r>    1.1415    1.0000 </r>
       <r>    6.5335    0.0000 </r>
       <r>    7.1942    0.0000 </r>
       <r>    8.1632    0.0000 </r>
       <r>   10.8486    0.0000 </r>
       <r>   11.5327    0.0000 </r>
       <r>   13.0094    0.0000 </r>
       <r>   15.2731    0.0000 </r>
       <r>   15.4368    0.0000 </r>
       <r>   16.1433    0.0000 </r>
       <r>   17.1523    0.0000 </r>
       <r>   18.1413    0.0000 </r>
      </set>
      <set comment="kpoint 54">
       <r>   -7.7013    1.0000 </r>
       <r>   -3.9065    1.0000 </r>
       <r>   -3.8878    1.0000 </r>
       <r>   -3.8011    1.0000 </r>
       <r>   -3.7782    1.0000 </r>
       <r>   -3.5647    1.0000 </r>
       <r>   -1.7714    1.0000 </r>
       <r>    0.0900    1.0000 </r>
       <r>    0.9266    1.0000 </r>
       <r>    6.6983    0.0000 </r>
       <r>    7.5994    0.0000 </r>
       <r>    8.4439    0.0000 </r>
       <r>   10.1985    0.0000 </r>
       <r>   11.4905    0.0000 </r>
       <r>   13.5679    0.0000 </r>
       <r>   14.9944    0.0000 </r>
       <r>   15.3770    0.0000 </r>
       <r>   17.2371    0.0000 </r>
       <r>   17.6106    0.0000 </r>
       <r>   18.5289    0.0000 </r>
      </set>
      <set comment="kpoint 55">
       <r>   -7.6551    1.0000 </r>
       <r>   -3.9030    1.0000 </r>
       <r>   -3.8747    1.0000 </r>
       <r>   -3.8152    1.0000 </r>
       <r>   -3.7726    1.0000 </r>
       <r>   -3.5441    1.0000 </r>
       <r>   -1.8252    1.0000 </r>
       <r>    0.2340    1.0000 </r>
       <r>    0.5745    1.0000 </r>
       <r>    6.6181    0.0000 </r>
       <r>    6.9154    0.0000 </r>
       <r>    9.0168    0.0000 </r>
       <r>   10.2393    0.0000 </r>
       <r>   12.6552    0.0000 </r>
       <r>   14.0094    0.0000 </r>
       <r>   14.8347    0.0000 </r>
       <r>   15.5392    0.0000 </r>
       <r>   17.1952    0.0000 </r>
       <r>   17.7159    0.0000 </r>
       <r>   18.4475    0.0000 </r>
      </set>
      <set comment="kpoint 56">
       <r>   -7.6466    1.0000 </r>
       <r>   -3.9029    1.0000 </r>
       <r>   -3.8766    1.0000 </r>
       <r>   -3.8000    1.0000 </r>
       <r>   -3.7829    1.0000 </r>
       <r>   -3.5249    1.0000 </r>
       <r>   -1.8275    1.0000 </r>
       <r>    0.0587    1.0000 </r>
       <r>    0.5990    1.0000 </r>
       <r>    6.8369    0.0000 </r>
       <r>    7.7580    0.0000 </r>
       <r>    8.7011    0.0000 </r>
       <r>    9.2802    0.0000 </r>
       <r>   12.6069    0.0000 </r>
       <r>   13.8106    0.0000 </r>
       <r>   14.9579    0.0000 </r>
       <r>   15.7190    0.0000 </r>
       <r>   17.2261    0.0000 </r>
       <r>   17.6907    0.0000 </r>
       <r>   19.0776    0.0000 </r>
      </set>
     </set>
    </set>
   </array>
  </eigenvalues>
  <separator name="orbital magnetization" >
   <v name="MAGDIPOLOUT">      0.00000000      0.00000000      0.00000000</v>
  </separator>
  <dos>
   <i name="efermi">      2.85257064 </i>
   <total>
    <array>
     <dimension dim="1">gridpoints</dimension>
     <dimension dim="2">spin</dimension>
     <field>energy</field>
     <field>total</field>
     <field>integrated</field>
     <set>
      <set comment="spin 1">
       <r>   -20.0000     0.0000     0.0000 </r>
       <r>   -19.9920     0.0000     0.0000 </r>
       <r>   -19.9840     0.0000     0.0000 </r>
       <r>   -19.9760     0.0000     0.0000 </r>
       <r>   -19.9680     0.0000     0.0000 </r>
       <r>   -19.9600     0.0000     0.0000 </r>
       <r>   -19.9520     0.0000     0.0000 </r>
       <r>   -19.9440     0.0000     0.0000 </r>
       <r>   -19.9360     0.0000     0.0000 </r>
       <r>   -19.9280     0.0000     0.0000 </r>
       <r>   -19.9200     0.0000     0.0000 </r>
       <r>   -19.9120     0.0000     0.0000 </r>
       <r>   -19.9040     0.0000     0.0000 </r>
       <r>   -19.8960     0.0000     0.0000 </r>
       <r>   -19.8880     0.0000     0.0000 </r>
       <r>   -19.8800     0.0000     0.0000 </r>
       <r>   -19.8720     0.0000     0.0000 </r>
       <r>   -19.8640     0.0000     0.0000 </r>
       <r>   -19.8560     0.0000     0.0000 </r>
       <r>   -19.8480     0.0000     0.0000 </r>
       <r>   -19.8400     0.0000     0.0000 </r>
       <r>   -19.8320     0.0000     0.0000 </r>
       <r>   -19.8240     0.0000     0.0000 </r>
       <r>   -19.8160     0.0000     0.0000 </r>
       <r>   -19.8080     0.0000     0.0000 </r>
       <r>   -19.8000     0.0000     0.0000 </r>
       <r>   -19.7920     0.0000     0.0000 </r>
       <r>   -19.7840     0.0000     0.0000 </r>
       <r>   -19.7760     0.0000     0.0000 </r>
       <r>   -19.7680     0.0000     0.0000 </r>
       <r>   -19.7600     0.0000     0.0000 </r>
       <r>   -19.7520     0.0000     0.0000 </r>
       <r>   -19.7439     0.0000     0.0000 </r>
       <r>   -19.7359     0.0000     0.0000 </r>
       <r>   -19.7279     0.0000     0.0000 </r>
       <r>   -19.7199     0.0000     0.0000 </r>
       <r>   -19.7119     0.0000     0.0000 </r>
       <r>   -19.7039     0.0000     0.0000 </r>
       <r>   -19.6959     0.0000     0.0000 </r>
       <r>   -19.6879     0.0000     0.0000 </r>
       <r>   -19.6799     0.0000     0.0000 </r>
       <r>   -19.6719     0.0000     0.0000 </r>
       <r>   -19.6639     0.0000     0.0000 </r>
       <r>   -19.6559     0.0000     0.0000 </r>
       <r>   -19.6479     0.0000     0.0000 </r>
       <r>   -19.6399     0.0000     0.0000 </r>
       <r>   -19.6319     0.0000     0.0000 </r>
       <r>   -19.6239     0.0000     0.0000 </r>
       <r>   -19.6159     0.0000     0.0000 </r>
       <r>   -19.6079     0.0000     0.0000 </r>
       <r>   -19.5999     0.0000     0.0000 </r>
       <r>   -19.5919     0.0000     0.0000 </r>
       <r>   -19.5839     0.0000     0.0000 </r>
       <r>   -19.5759     0.0000     0.0000 </r>
       <r>   -19.5679     0.0000     0.0000 </r>
       <r>   -19.5599     0.0000     0.0000 </r>
       <r>   -19.5519     0.0000     0.0000 </r>
       <r>   -19.5439     0.0000     0.0000 </r>
       <r>   -19.5359     0.0000     0.0000 </r>
       <r>   -19.5279     0.0000     0.0000 </r>
       <r>   -19.5199     0.0000     0.0000 </r>
       <r>   -19.5119     0.0000     0.0000 </r>
       <r>   -19.5039     0.0000     0.0000 </r>
       <r>   -19.4959     0.0000     0.0000 </r>
       <r>   -19.4879     0.0000     0.0000 </r>
       <r>   -19.4799     0.0000     0.0000 </r>
       <r>   -19.4719     0.0000     0.0000 </r>
       <r>   -19.4639     0.0000     0.0000 </r>
       <r>   -19.4559     0.0000     0.0000 </r>
       <r>   -19.4479     0.0000     0.0000 </r>
       <r>   -19.4399     0.0000     0.0000 </r>
       <r>   -19.4319     0.0000     0.0000 </r>
       <r>   -19.4239     0.0000     0.0000 </r>
       <r>   -19.4159     0.0000     0.0000 </r>
       <r>   -19.4079     0.0000     0.0000 </r>
       <r>   -19.3999     0.0000     0.0000 </r>
       <r>   -19.3919     0.0000     0.0000 </r>
       <r>   -19.3839     0.0000     0.0000 </r>
       <r>   -19.3759     0.0000     0.0000 </r>
       <r>   -19.3679     0.0000     0.0000 </r>
       <r>   -19.3599     0.0000     0.0000 </r>
       <r>   -19.3519     0.0000     0.0000 </r>
       <r>   -19.3439     0.0000     0.0000 </r>
       <r>   -19.3359     0.0000     0.0000 </r>
       <r>   -19.3279     0.0000     0.0000 </r>
       <r>   -19.3199     0.0000     0.0000 </r>
       <r>   -19.3119     0.0000     0.0000 </r>
       <r>   -19.3039     0.0000     0.0000 </r>
       <r>   -19.2959     0.0000     0.0000 </r>
       <r>   -19.2879     0.0000     0.0000 </r>
       <r>   -19.2799     0.0000     0.0000 </r>
       <r>   -19.2719     0.0000     0.0000 </r>
       <r>   -19.2639     0.0000     0.0000 </r>
       <r>   -19.2559     0.0000     0.0000 </r>
       <r>   -19.2478     0.0000     0.0000 </r>
       <r>   -19.2398     0.0000     0.0000 </r>
       <r>   -19.2318     0.0000     0.0000 </r>
       <r>   -19.2238     0.0000     0.0000 </r>
       <r>   -19.2158     0.0000     0.0000 </r>
       <r>   -19.2078     0.0000     0.0000 </r>
       <r>   -19.1998     0.0000     0.0000 </r>
       <r>   -19.1918     0.0000     0.0000 </r>
       <r>   -19.1838     0.0000     0.0000 </r>
       <r>   -19.1758     0.0000     0.0000 </r>
       <r>   -19.1678     0.0000     0.0000 </r>
       <r>   -19.1598     0.0000     0.0000 </r>
       <r>   -19.1518     0.0000     0.0000 </r>
       <r>   -19.1438     0.0000     0.0000 </r>
       <r>   -19.1358     0.0000     0.0000 </r>
       <r>   -19.1278     0.0000     0.0000 </r>
       <r>   -19.1198     0.0000     0.0000 </r>
       <r>   -19.1118     0.0000     0.0000 </r>
       <r>   -19.1038     0.0000     0.0000 </r>
       <r>   -19.0958     0.0000     0.0000 </r>
       <r>   -19.0878     0.0000     0.0000 </r>
       <r>   -19.0798     0.0000     0.0000 </r>
       <r>   -19.0718     0.0000     0.0000 </r>
       <r>   -19.0638     0.0000     0.0000 </r>
       <r>   -19.0558     0.0000     0.0000 </r>
       <r>   -19.0478     0.0000     0.0000 </r>
       <r>   -19.0398     0.0000     0.0000 </r>
       <r>   -19.0318     0.0000     0.0000 </r>
       <r>   -19.0238     0.0000     0.0000 </r>
       <r>   -19.0158     0.0000     0.0000 </r>
       <r>   -19.0078     0.0000     0.0000 </r>
       <r>   -18.9998     0.0000     0.0000 </r>
       <r>   -18.9918     0.0000     0.0000 </r>
       <r>   -18.9838     0.0000     0.0000 </r>
       <r>   -18.9758     0.0000     0.0000 </r>
       <r>   -18.9678     0.0000     0.0000 </r>
       <r>   -18.9598     0.0000     0.0000 </r>
       <r>   -18.9518     0.0000     0.0000 </r>
       <r>   -18.9438     0.0000     0.0000 </r>
       <r>   -18.9358     0.0000     0.0000 </r>
       <r>   -18.9278     0.0000     0.0000 </r>
       <r>   -18.9198     0.0000     0.0000 </r>
       <r>   -18.9118     0.0000     0.0000 </r>
       <r>   -18.9038     0.0000     0.0000 </r>
       <r>   -18.8958     0.0000     0.0000 </r>
       <r>   -18.8878     0.0000     0.0000 </r>
       <r>   -18.8798     0.0000     0.0000 </r>
       <r>   -18.8718     0.0000     0.0000 </r>
       <r>   -18.8638     0.0000     0.0000 </r>
       <r>   -18.8558     0.0000     0.0000 </r>
       <r>   -18.8478     0.0000     0.0000 </r>
       <r>   -18.8398     0.0000     0.0000 </r>
       <r>   -18.8318     0.0000     0.0000 </r>
       <r>   -18.8238     0.0000     0.0000 </r>
       <r>   -18.8158     0.0000     0.0000 </r>
       <r>   -18.8078     0.0000     0.0000 </r>
       <r>   -18.7998     0.0000     0.0000 </r>
       <r>   -18.7918     0.0000     0.0000 </r>
       <r>   -18.7838     0.0000     0.0000 </r>
       <r>   -18.7758     0.0000     0.0000 </r>
       <r>   -18.7678     0.0000     0.0000 </r>
       <r>   -18.7598     0.0000     0.0000 </r>
       <r>   -18.7518     0.0000     0.0000 </r>
       <r>   -18.7437     0.0000     0.0000 </r>
       <r>   -18.7357     0.0000     0.0000 </r>
       <r>   -18.7277     0.0000     0.0000 </r>
       <r>   -18.7197     0.0000     0.0000 </r>
       <r>   -18.7117     0.0000     0.0000 </r>
       <r>   -18.7037     0.0000     0.0000 </r>
       <r>   -18.6957     0.0000     0.0000 </r>
       <r>   -18.6877     0.0000     0.0000 </r>
       <r>   -18.6797     0.0000     0.0000 </r>
       <r>   -18.6717     0.0000     0.0000 </r>
       <r>   -18.6637     0.0000     0.0000 </r>
       <r>   -18.6557     0.0000     0.0000 </r>
       <r>   -18.6477     0.0000     0.0000 </r>
       <r>   -18.6397     0.0000     0.0000 </r>
       <r>   -18.6317     0.0000     0.0000 </r>
       <r>   -18.6237     0.0000     0.0000 </r>
       <r>   -18.6157     0.0000     0.0000 </r>
       <r>   -18.6077     0.0000     0.0000 </r>
       <r>   -18.5997     0.0000     0.0000 </r>
       <r>   -18.5917     0.0000     0.0000 </r>
       <r>   -18.5837     0.0000     0.0000 </r>
       <r>   -18.5757     0.0000     0.0000 </r>
       <r>   -18.5677     0.0000     0.0000 </r>
       <r>   -18.5597     0.0000     0.0000 </r>
       <r>   -18.5517     0.0000     0.0000 </r>
       <r>   -18.5437     0.0000     0.0000 </r>
       <r>   -18.5357     0.0000     0.0000 </r>
       <r>   -18.5277     0.0000     0.0000 </r>
       <r>   -18.5197     0.0000     0.0000 </r>
       <r>   -18.5117     0.0000     0.0000 </r>
       <r>   -18.5037     0.0000     0.0000 </r>
       <r>   -18.4957     0.0000     0.0000 </r>
       <r>   -18.4877     0.0000     0.0000 </r>
       <r>   -18.4797     0.0000     0.0000 </r>
       <r>   -18.4717     0.0000     0.0000 </r>
       <r>   -18.4637     0.0000     0.0000 </r>
       <r>   -18.4557     0.0000     0.0000 </r>
       <r>   -18.4477     0.0000     0.0000 </r>
       <r>   -18.4397     0.0000     0.0000 </r>
       <r>   -18.4317     0.0000     0.0000 </r>
       <r>   -18.4237     0.0000     0.0000 </r>
       <r>   -18.4157     0.0000     0.0000 </r>
       <r>   -18.4077     0.0000     0.0000 </r>
       <r>   -18.3997     0.0000     0.0000 </r>
       <r>   -18.3917     0.0000     0.0000 </r>
       <r>   -18.3837     0.0000     0.0000 </r>
       <r>   -18.3757     0.0000     0.0000 </r>
       <r>   -18.3677     0.0000     0.0000 </r>
       <r>   -18.3597     0.0000     0.0000 </r>
       <r>   -18.3517     0.0000     0.0000 </r>
       <r>   -18.3437     0.0000     0.0000 </r>
       <r>   -18.3357     0.0000     0.0000 </r>
       <r>   -18.3277     0.0000     0.0000 </r>
       <r>   -18.3197     0.0000     0.0000 </r>
       <r>   -18.3117     0.0000     0.0000 </r>
       <r>   -18.3037     0.0000     0.0000 </r>
       <r>   -18.2957     0.0000     0.0000 </r>
       <r>   -18.2877     0.0000     0.0000 </r>
       <r>   -18.2797     0.0000     0.0000 </r>
       <r>   -18.2717     0.0000     0.0000 </r>
       <r>   -18.2637     0.0000     0.0000 </r>
       <r>   -18.2557     0.0000     0.0000 </r>
       <r>   -18.2476     0.0000     0.0000 </r>
       <r>   -18.2396     0.0000     0.0000 </r>
       <r>   -18.2316     0.0000     0.0000 </r>
       <r>   -18.2236     0.0000     0.0000 </r>
       <r>   -18.2156     0.0000     0.0000 </r>
       <r>   -18.2076     0.0000     0.0000 </r>
       <r>   -18.1996     0.0000     0.0000 </r>
       <r>   -18.1916     0.0000     0.0000 </r>
       <r>   -18.1836     0.0000     0.0000 </r>
       <r>   -18.1756     0.0000     0.0000 </r>
       <r>   -18.1676     0.0000     0.0000 </r>
       <r>   -18.1596     0.0000     0.0000 </r>
       <r>   -18.1516     0.0000     0.0000 </r>
[...]
       <r>    16.8794     0.5403    36.0328 </r>
       <r>    16.8874     0.3184    36.0354 </r>
       <r>    16.8954     1.2810    36.0456 </r>
       <r>    16.9034     1.9049    36.0608 </r>
       <r>    16.9114     0.8965    36.0680 </r>
       <r>    16.9194     0.1322    36.0691 </r>
       <r>    16.9274     0.0200    36.0692 </r>
       <r>    16.9354     0.2485    36.0712 </r>
       <r>    16.9434     1.4467    36.0828 </r>
       <r>    16.9514     2.8974    36.1060 </r>
       <r>    16.9594     2.5643    36.1265 </r>
       <r>    16.9674     2.2427    36.1444 </r>
       <r>    16.9754     1.6963    36.1580 </r>
       <r>    16.9834     1.5212    36.1702 </r>
       <r>    16.9914     1.9679    36.1859 </r>
       <r>    16.9994     1.2943    36.1963 </r>
       <r>    17.0074     2.0440    36.2126 </r>
       <r>    17.0154     4.1745    36.2461 </r>
       <r>    17.0234     3.9269    36.2775 </r>
       <r>    17.0314     2.5752    36.2981 </r>
       <r>    17.0394     1.9325    36.3135 </r>
       <r>    17.0474     2.0290    36.3298 </r>
       <r>    17.0554     1.0426    36.3381 </r>
       <r>    17.0634     0.1825    36.3396 </r>
       <r>    17.0714     0.1474    36.3408 </r>
       <r>    17.0794     0.8841    36.3478 </r>
       <r>    17.0874     2.0130    36.3639 </r>
       <r>    17.0954     1.6708    36.3773 </r>
       <r>    17.1034     0.4938    36.3813 </r>
       <r>    17.1114     0.0498    36.3817 </r>
       <r>    17.1194     0.0192    36.3818 </r>
       <r>    17.1274     0.1832    36.3833 </r>
       <r>    17.1354     0.8342    36.3900 </r>
       <r>    17.1434     2.2714    36.4081 </r>
       <r>    17.1514     3.5105    36.4362 </r>
       <r>    17.1594     2.5735    36.4568 </r>
       <r>    17.1674     1.2683    36.4670 </r>
       <r>    17.1754     1.7713    36.4811 </r>
       <r>    17.1834     1.8681    36.4961 </r>
       <r>    17.1914     1.6421    36.5092 </r>
       <r>    17.1994     1.9974    36.5252 </r>
       <r>    17.2074     1.2735    36.5354 </r>
       <r>    17.2154     1.2352    36.5453 </r>
       <r>    17.2234     2.4848    36.5652 </r>
       <r>    17.2314     4.6919    36.6027 </r>
       <r>    17.2394     8.8875    36.6738 </r>
       <r>    17.2474    10.3133    36.7563 </r>
       <r>    17.2555     5.2272    36.7982 </r>
       <r>    17.2635     1.7340    36.8120 </r>
       <r>    17.2715     1.9223    36.8274 </r>
       <r>    17.2795     1.4031    36.8386 </r>
       <r>    17.2875     0.4323    36.8421 </r>
       <r>    17.2955     1.2388    36.8520 </r>
       <r>    17.3035     4.6301    36.8891 </r>
       <r>    17.3115     6.4404    36.9406 </r>
       <r>    17.3195     5.6315    36.9857 </r>
       <r>    17.3275     4.9913    37.0256 </r>
       <r>    17.3355     3.9171    37.0569 </r>
       <r>    17.3435     2.9457    37.0805 </r>
       <r>    17.3515     1.3946    37.0917 </r>
       <r>    17.3595     0.2722    37.0939 </r>
       <r>    17.3675     0.1876    37.0954 </r>
       <r>    17.3755     1.0303    37.1036 </r>
       <r>    17.3835     1.9988    37.1196 </r>
       <r>    17.3915     1.6278    37.1326 </r>
       <r>    17.3995     1.5453    37.1450 </r>
       <r>    17.4075     2.7893    37.1673 </r>
       <r>    17.4155     3.9910    37.1992 </r>
       <r>    17.4235     2.2170    37.2170 </r>
       <r>    17.4315     0.7220    37.2228 </r>
       <r>    17.4395     2.0419    37.2391 </r>
       <r>    17.4475     3.8544    37.2699 </r>
       <r>    17.4555     2.3247    37.2885 </r>
       <r>    17.4635     0.4400    37.2921 </r>
       <r>    17.4715     0.0257    37.2923 </r>
       <r>    17.4795     0.0063    37.2923 </r>
       <r>    17.4875     0.1301    37.2933 </r>
       <r>    17.4955     0.8900    37.3005 </r>
       <r>    17.5035     1.9030    37.3157 </r>
       <r>    17.5115     1.2865    37.3260 </r>
       <r>    17.5195     0.2795    37.3282 </r>
       <r>    17.5275     0.1539    37.3295 </r>
       <r>    17.5355     0.9117    37.3368 </r>
       <r>    17.5435     1.9093    37.3520 </r>
       <r>    17.5515     1.2862    37.3623 </r>
       <r>    17.5595     0.5842    37.3670 </r>
       <r>    17.5675     1.5761    37.3796 </r>
       <r>    17.5755     3.0300    37.4039 </r>
       <r>    17.5835     3.2877    37.4302 </r>
       <r>    17.5915     3.0137    37.4543 </r>
       <r>    17.5995     3.2168    37.4800 </r>
       <r>    17.6075     4.8960    37.5192 </r>
       <r>    17.6155     5.2037    37.5608 </r>
       <r>    17.6235     2.1986    37.5784 </r>
       <r>    17.6315     0.6746    37.5838 </r>
       <r>    17.6395     1.4746    37.5956 </r>
       <r>    17.6475     1.8318    37.6103 </r>
       <r>    17.6555     0.7258    37.6161 </r>
       <r>    17.6635     0.0899    37.6168 </r>
       <r>    17.6715     0.0185    37.6170 </r>
       <r>    17.6795     0.2453    37.6189 </r>
       <r>    17.6875     1.2318    37.6288 </r>
       <r>    17.6955     2.0912    37.6455 </r>
       <r>    17.7035     2.1955    37.6631 </r>
       <r>    17.7115     3.7549    37.6931 </r>
       <r>    17.7195     4.9000    37.7323 </r>
       <r>    17.7275     3.1261    37.7573 </r>
       <r>    17.7355     2.0477    37.7737 </r>
       <r>    17.7435     2.9022    37.7969 </r>
       <r>    17.7516     1.9292    37.8124 </r>
       <r>    17.7596     1.1714    37.8218 </r>
       <r>    17.7676     3.0100    37.8458 </r>
       <r>    17.7756     3.6250    37.8748 </r>
       <r>    17.7836     1.5946    37.8876 </r>
       <r>    17.7916     1.3551    37.8984 </r>
       <r>    17.7996     2.8300    37.9211 </r>
       <r>    17.8076     4.2180    37.9548 </r>
       <r>    17.8156     3.6962    37.9844 </r>
       <r>    17.8236     1.2632    37.9945 </r>
       <r>    17.8316     0.4313    37.9980 </r>
       <r>    17.8396     1.7005    38.0116 </r>
       <r>    17.8476     4.6032    38.0484 </r>
       <r>    17.8556     6.5985    38.1012 </r>
       <r>    17.8636     3.9526    38.1328 </r>
       <r>    17.8716     0.8211    38.1394 </r>
       <r>    17.8796     0.3099    38.1419 </r>
       <r>    17.8876     1.7756    38.1561 </r>
       <r>    17.8956     3.9120    38.1874 </r>
       <r>    17.9036     3.6381    38.2165 </r>
       <r>    17.9116     3.8376    38.2472 </r>
       <r>    17.9196     3.3712    38.2742 </r>
       <r>    17.9276     1.1041    38.2830 </r>
       <r>    17.9356     0.1171    38.2840 </r>
       <r>    17.9436     0.0039    38.2840 </r>
       <r>    17.9516     0.0000    38.2840 </r>
       <r>    17.9596     0.0000    38.2840 </r>
       <r>    17.9676     0.0000    38.2840 </r>
       <r>    17.9756     0.0005    38.2840 </r>
       <r>    17.9836     0.0158    38.2841 </r>
       <r>    17.9916     0.1692    38.2855 </r>
       <r>    17.9996     0.6214    38.2905 </r>
       <r>    18.0076     1.2181    38.3002 </r>
       <r>    18.0156     1.9676    38.3159 </r>
       <r>    18.0236     1.5600    38.3284 </r>
       <r>    18.0316     0.4207    38.3318 </r>
       <r>    18.0396     0.0454    38.3322 </r>
       <r>    18.0476     0.2587    38.3342 </r>
       <r>    18.0556     2.1049    38.3511 </r>
       <r>    18.0636     5.8296    38.3977 </r>
       <r>    18.0716     7.1703    38.4551 </r>
       <r>    18.0796     6.6716    38.5085 </r>
       <r>    18.0876     3.9851    38.5404 </r>
       <r>    18.0956     0.9376    38.5479 </r>
       <r>    18.1036     0.0731    38.5484 </r>
       <r>    18.1116     0.0018    38.5485 </r>
       <r>    18.1196     0.0049    38.5485 </r>
       <r>    18.1276     0.1150    38.5494 </r>
       <r>    18.1356     0.8329    38.5561 </r>
       <r>    18.1436     1.8835    38.5712 </r>
       <r>    18.1516     1.3465    38.5819 </r>
       <r>    18.1596     0.3027    38.5844 </r>
       <r>    18.1676     0.0210    38.5845 </r>
       <r>    18.1756     0.0004    38.5845 </r>
       <r>    18.1836     0.0000    38.5845 </r>
       <r>    18.1916     0.0029    38.5845 </r>
       <r>    18.1996     0.0999    38.5853 </r>
       <r>    18.2076     1.0358    38.5936 </r>
       <r>    18.2156     3.3844    38.6207 </r>
       <r>    18.2236     4.1401    38.6538 </r>
       <r>    18.2316     4.0635    38.6864 </r>
       <r>    18.2396     3.7955    38.7167 </r>
       <r>    18.2476     1.7540    38.7308 </r>
       <r>    18.2557     0.9080    38.7380 </r>
       <r>    18.2637     1.1432    38.7472 </r>
       <r>    18.2717     2.0446    38.7635 </r>
       <r>    18.2797     2.3040    38.7820 </r>
       <r>    18.2877     2.2435    38.7999 </r>
       <r>    18.2957     1.3256    38.8105 </r>
       <r>    18.3037     0.2802    38.8128 </r>
       <r>    18.3117     0.0185    38.8129 </r>
       <r>    18.3197     0.0004    38.8129 </r>
       <r>    18.3277     0.0056    38.8130 </r>
       <r>    18.3357     0.1322    38.8140 </r>
       <r>    18.3437     1.0065    38.8221 </r>
       <r>    18.3517     2.7887    38.8444 </r>
       <r>    18.3597     3.6035    38.8732 </r>
       <r>    18.3677     2.6629    38.8945 </r>
       <r>    18.3757     0.9703    38.9023 </r>
       <r>    18.3837     0.5981    38.9071 </r>
       <r>    18.3917     2.4186    38.9264 </r>
       <r>    18.3997     3.8418    38.9572 </r>
       <r>    18.4077     1.9338    38.9726 </r>
       <r>    18.4157     0.3046    38.9751 </r>
       <r>    18.4237     0.0164    38.9752 </r>
       <r>    18.4317     0.0563    38.9757 </r>
       <r>    18.4397     0.5735    38.9803 </r>
       <r>    18.4477     1.9474    38.9958 </r>
       <r>    18.4557     2.4946    39.0158 </r>
       <r>    18.4637     1.5354    39.0281 </r>
       <r>    18.4717     0.7826    39.0343 </r>
       <r>    18.4797     0.4331    39.0378 </r>
       <r>    18.4877     0.5257    39.0420 </r>
       <r>    18.4957     1.5653    39.0545 </r>
       <r>    18.5037     1.7720    39.0687 </r>
       <r>    18.5117     0.7011    39.0743 </r>
       <r>    18.5197     0.8748    39.0813 </r>
       <r>    18.5277     3.0327    39.1056 </r>
       <r>    18.5357     3.5988    39.1344 </r>
       <r>    18.5437     1.3500    39.1452 </r>
       <r>    18.5517     0.1577    39.1465 </r>
       <r>    18.5597     0.0056    39.1465 </r>
       <r>    18.5677     0.0001    39.1465 </r>
       <r>    18.5757     0.0000    39.1465 </r>
       <r>    18.5837     0.0000    39.1465 </r>
       <r>    18.5917     0.0004    39.1465 </r>
       <r>    18.5997     0.0203    39.1467 </r>
       <r>    18.6077     0.2969    39.1490 </r>
       <r>    18.6157     1.3619    39.1599 </r>
       <r>    18.6237     2.3505    39.1788 </r>
       <r>    18.6317     3.4178    39.2061 </r>
       <r>    18.6397     5.4276    39.2495 </r>
       <r>    18.6477     5.4191    39.2929 </r>
       <r>    18.6557     6.1383    39.3420 </r>
       <r>    18.6637     7.5591    39.4025 </r>
       <r>    18.6717     4.8651    39.4414 </r>
       <r>    18.6797     1.3091    39.4519 </r>
       <r>    18.6877     0.1391    39.4530 </r>
       <r>    18.6957     0.0501    39.4534 </r>
       <r>    18.7037     0.5042    39.4574 </r>
       <r>    18.7117     2.0781    39.4741 </r>
       <r>    18.7197     4.6105    39.5110 </r>
       <r>    18.7277     6.3260    39.5616 </r>
       <r>    18.7357     3.6925    39.5911 </r>
       <r>    18.7437     0.7273    39.5969 </r>
       <r>    18.7518     0.0868    39.5976 </r>
       <r>    18.7598     0.2968    39.6000 </r>
       <r>    18.7678     0.7053    39.6057 </r>
       <r>    18.7758     0.9035    39.6129 </r>
       <r>    18.7838     1.0510    39.6213 </r>
       <r>    18.7918     0.6230    39.6263 </r>
       <r>    18.7998     0.1249    39.6273 </r>
       <r>    18.8078     0.0078    39.6273 </r>
       <r>    18.8158     0.0001    39.6273 </r>
       <r>    18.8238     0.0000    39.6273 </r>
       <r>    18.8318     0.0000    39.6273 </r>
       <r>    18.8398     0.0000    39.6273 </r>
       <r>    18.8478     0.0000    39.6273 </r>
       <r>    18.8558     0.0000    39.6273 </r>
       <r>    18.8638     0.0000    39.6273 </r>
       <r>    18.8718     0.0000    39.6273 </r>
       <r>    18.8798     0.0000    39.6273 </r>
       <r>    18.8878     0.0000    39.6273 </r>
       <r>    18.8958     0.0002    39.6273 </r>
       <r>    18.9038     0.0090    39.6274 </r>
       <r>    18.9118     0.1063    39.6283 </r>
       <r>    18.9198     0.3871    39.6314 </r>
       <r>    18.9278     0.4443    39.6349 </r>
       <r>    18.9358     0.1617    39.6362 </r>
       <r>    18.9438     0.0466    39.6366 </r>
       <r>    18.9518     0.3675    39.6395 </r>
       <r>    18.9598     1.4609    39.6512 </r>
       <r>    18.9678     1.8315    39.6659 </r>
       <r>    18.9758     0.7255    39.6717 </r>
       <r>    18.9838     0.0896    39.6724 </r>
       <r>    18.9918     0.0034    39.6724 </r>
       <r>    18.9998     0.0000    39.6724 </r>
       <r>    19.0078     0.0000    39.6724 </r>
       <r>    19.0158     0.0000    39.6724 </r>
       <r>    19.0238     0.0001    39.6724 </r>
       <r>    19.0318     0.0106    39.6725 </r>
       <r>    19.0398     0.2447    39.6745 </r>
       <r>    19.0478     1.7225    39.6883 </r>
       <r>    19.0558     3.7922    39.7186 </r>
       <r>    19.0638     2.7426    39.7405 </r>
       <r>    19.0718     1.3855    39.7516 </r>
       <r>    19.0798     1.9130    39.7669 </r>
       <r>    19.0878     1.3740    39.7779 </r>
       <r>    19.0958     0.3731    39.7809 </r>
       <r>    19.1038     0.4397    39.7844 </r>
       <r>    19.1118     0.9426    39.7920 </r>
       <r>    19.1198     0.6723    39.7974 </r>
       <r>    19.1278     0.1522    39.7986 </r>
       <r>    19.1358     0.0442    39.7989 </r>
       <r>    19.1438     0.2595    39.8010 </r>
       <r>    19.1518     0.6289    39.8060 </r>
       <r>    19.1598     0.6454    39.8112 </r>
       <r>    19.1678     1.1554    39.8204 </r>
       <r>    19.1758     1.9387    39.8360 </r>
       <r>    19.1838     1.1639    39.8453 </r>
       <r>    19.1918     0.7505    39.8513 </r>
       <r>    19.1998     2.5783    39.8719 </r>
       <r>    19.2078     3.8079    39.9024 </r>
       <r>    19.2158     1.7861    39.9167 </r>
       <r>    19.2238     0.2619    39.9188 </r>
       <r>    19.2318     0.0117    39.9189 </r>
       <r>    19.2398     0.0002    39.9189 </r>
       <r>    19.2478     0.0000    39.9189 </r>
       <r>    19.2559     0.0000    39.9189 </r>
       <r>    19.2639     0.0000    39.9189 </r>
       <r>    19.2719     0.0000    39.9189 </r>
       <r>    19.2799     0.0000    39.9189 </r>
       <r>    19.2879     0.0000    39.9189 </r>
       <r>    19.2959     0.0000    39.9189 </r>
       <r>    19.3039     0.0000    39.9189 </r>
       <r>    19.3119     0.0000    39.9189 </r>
       <r>    19.3199     0.0000    39.9189 </r>
       <r>    19.3279     0.0000    39.9189 </r>
       <r>    19.3359     0.0000    39.9189 </r>
       <r>    19.3439     0.0000    39.9189 </r>
       <r>    19.3519     0.0016    39.9189 </r>
       <r>    19.3599     0.0540    39.9193 </r>
       <r>    19.3679     0.5415    39.9236 </r>
       <r>    19.3759     1.6867    39.9371 </r>
       <r>    19.3839     1.6581    39.9504 </r>
       <r>    19.3919     0.5164    39.9545 </r>
       <r>    19.3999     0.0949    39.9553 </r>
       <r>    19.4079     0.3421    39.9580 </r>
       <r>    19.4159     1.1896    39.9675 </r>
       <r>    19.4239     2.1088    39.9844 </r>
       <r>    19.4319     1.5342    39.9967 </r>
       <r>    19.4399     0.3821    39.9998 </r>
       <r>    19.4479     0.0301    40.0000 </r>
       <r>    19.4559     0.0007    40.0000 </r>
       <r>    19.4639     0.0000    40.0000 </r>
       <r>    19.4719     0.0000    40.0000 </r>
       <r>    19.4799     0.0000    40.0000 </r>
       <r>    19.4879     0.0000    40.0000 </r>
       <r>    19.4959     0.0000    40.0000 </r>
       <r>    19.5039     0.0000    40.0000 </r>
       <r>    19.5119     0.0000    40.0000 </r>
       <r>    19.5199     0.0000    40.0000 </r>
       <r>    19.5279     0.0000    40.0000 </r>
       <r>    19.5359     0.0000    40.0000 </r>
       <r>    19.5439     0.0000    40.0000 </r>
       <r>    19.5519     0.0000    40.0000 </r>
       <r>    19.5599     0.0000    40.0000 </r>
       <r>    19.5679     0.0000    40.0000 </r>
       <r>    19.5759     0.0000    40.0000 </r>
       <r>    19.5839     0.0000    40.0000 </r>
       <r>    19.5919     0.0000    40.0000 </r>
       <r>    19.5999     0.0000    40.0000 </r>
       <r>    19.6079     0.0000    40.0000 </r>
       <r>    19.6159     0.0000    40.0000 </r>
       <r>    19.6239     0.0000    40.0000 </r>
       <r>    19.6319     0.0000    40.0000 </r>
       <r>    19.6399     0.0000    40.0000 </r>
       <r>    19.6479     0.0000    40.0000 </r>
       <r>    19.6559     0.0000    40.0000 </r>
       <r>    19.6639     0.0000    40.0000 </r>
       <r>    19.6719     0.0000    40.0000 </r>
       <r>    19.6799     0.0000    40.0000 </r>
       <r>    19.6879     0.0000    40.0000 </r>
       <r>    19.6959     0.0000    40.0000 </r>
       <r>    19.7039     0.0000    40.0000 </r>
       <r>    19.7119     0.0000    40.0000 </r>
       <r>    19.7199     0.0000    40.0000 </r>
       <r>    19.7279     0.0000    40.0000 </r>
       <r>    19.7359     0.0000    40.0000 </r>
       <r>    19.7439     0.0000    40.0000 </r>
       <r>    19.7520     0.0000    40.0000 </r>
       <r>    19.7600     0.0000    40.0000 </r>
       <r>    19.7680     0.0000    40.0000 </r>
       <r>    19.7760     0.0000    40.0000 </r>
       <r>    19.7840     0.0000    40.0000 </r>
       <r>    19.7920     0.0000    40.0000 </r>
       <r>    19.8000     0.0000    40.0000 </r>
       <r>    19.8080     0.0000    40.0000 </r>
       <r>    19.8160     0.0000    40.0000 </r>
       <r>    19.8240     0.0000    40.0000 </r>
       <r>    19.8320     0.0000    40.0000 </r>
       <r>    19.8400     0.0000    40.0000 </r>
       <r>    19.8480     0.0000    40.0000 </r>
       <r>    19.8560     0.0000    40.0000 </r>
       <r>    19.8640     0.0000    40.0000 </r>
       <r>    19.8720     0.0000    40.0000 </r>
       <r>    19.8800     0.0000    40.0000 </r>
       <r>    19.8880     0.0000    40.0000 </r>
       <r>    19.8960     0.0000    40.0000 </r>
       <r>    19.9040     0.0000    40.0000 </r>
       <r>    19.9120     0.0000    40.0000 </r>
       <r>    19.9200     0.0000    40.0000 </r>
       <r>    19.9280     0.0000    40.0000 </r>
       <r>    19.9360     0.0000    40.0000 </r>
       <r>    19.9440     0.0000    40.0000 </r>
       <r>    19.9520     0.0000    40.0000 </r>
       <r>    19.9600     0.0000    40.0000 </r>
       <r>    19.9680     0.0000    40.0000 </r>
       <r>    19.9760     0.0000    40.0000 </r>
       <r>    19.9840     0.0000    40.0000 </r>
       <r>    19.9920     0.0000    40.0000 </r>
       <r>    20.0000     0.0000    40.0000 </r>
      </set>
     </set>
    </array>
   </total>
  </dos>
 </calculation>
 <structure name="finalpos" >
  <crystal>
   <varray name="basis" >
    <v>       3.78741700       0.00000000       2.18666600 </v>
    <v>       1.26247200       3.57081100       2.18666600 </v>
    <v>       0.00000000       0.00000000       4.37333300 </v>
   </varray>
   <i name="volume">     59.14561274 </i>
   <varray name="rec_basis" >
    <v>       0.26403219      -0.09334945       0.00000000 </v>
    <v>       0.00000000       0.28004843       0.00000000 </v>
    <v>      -0.13201606      -0.09334947       0.22865855 </v>
   </varray>
  </crystal>
  <varray name="positions" >
   <v>       0.00000000       0.00000000       0.00000000 </v>
   <v>       0.25000000       0.25000000       0.25000000 </v>
  </varray>
 </structure>
</modeling>
