   8   8   0   0
  0.2392351E+02  0.5762863E-09  0.5762863E-09  0.5762863E-09  0.5000000E-15
  1.000000000000000E-004
  CAR 
 unknown system                          
      6.67484509     -9.72929158  301      0.45066348      1.00000000
     -9.729  0.0000E+00  0.0000E+00
     -9.675  0.0000E+00  0.0000E+00
     -9.620  0.0000E+00  0.0000E+00
     -9.565  0.0000E+00  0.0000E+00
     -9.511  0.0000E+00  0.0000E+00
     -9.456  0.0000E+00  0.0000E+00
     -9.401  0.0000E+00  0.0000E+00
     -9.347  0.0000E+00  0.0000E+00
     -9.292  0.4011E-17  0.2193E-18
     -9.237  0.1542E-14  0.8454E-16
     -9.182  0.3288E-12  0.1807E-13
     -9.128  0.3900E-10  0.2151E-11
     -9.073  0.2577E-08  0.1431E-09
     -9.018  0.9509E-07  0.5343E-08
     -8.964  0.1964E-05  0.1128E-06
     -8.909  0.2278E-04  0.1358E-05
     -8.854  0.1486E-03  0.9486E-05
     -8.800  0.5476E-03  0.3943E-04
     -8.745  0.1145E-02  0.1021E-03
     -8.690  0.1414E-02  0.1794E-03
     -8.636  0.1359E-02  0.2537E-03
     -8.581  0.2021E-02  0.3642E-03
     -8.526  0.3535E-02  0.5575E-03
     -8.472  0.4110E-02  0.7822E-03
     -8.417  0.3177E-02  0.9559E-03
     -8.362  0.2829E-02  0.1111E-02
     -8.308  0.3810E-02  0.1319E-02
     -8.253  0.4109E-02  0.1544E-02
     -8.198  0.3242E-02  0.1721E-02
     -8.144  0.3455E-02  0.1910E-02
     -8.089  0.5075E-02  0.2187E-02
     -8.034  0.5525E-02  0.2489E-02
     -7.980  0.4729E-02  0.2748E-02
     -7.925  0.5737E-02  0.3062E-02
     -7.870  0.8040E-02  0.3501E-02
     -7.815  0.7738E-02  0.3924E-02
     -7.761  0.5334E-02  0.4216E-02
     -7.706  0.4354E-02  0.4454E-02
     -7.651  0.4372E-02  0.4693E-02
     -7.597  0.3640E-02  0.4892E-02
     -7.542  0.3766E-02  0.5098E-02
     -7.487  0.6211E-02  0.5438E-02
     -7.433  0.8530E-02  0.5904E-02
     -7.378  0.8792E-02  0.6385E-02
     -7.323  0.9573E-02  0.6908E-02
     -7.269  0.1167E-01  0.7547E-02
     -7.214  0.1131E-01  0.8165E-02
     -7.159  0.8133E-02  0.8610E-02
     -7.105  0.6043E-02  0.8941E-02
     -7.050  0.5724E-02  0.9254E-02
     -6.995  0.5853E-02  0.9574E-02
     -6.941  0.7503E-02  0.9984E-02
     -6.886  0.1081E-01  0.1057E-01
     -6.831  0.1312E-01  0.1129E-01
     -6.777  0.1285E-01  0.1199E-01
     -6.722  0.1082E-01  0.1259E-01
     -6.667  0.9108E-02  0.1308E-01
     -6.613  0.8394E-02  0.1354E-01
     -6.558  0.8451E-02  0.1401E-01
     -6.503  0.1106E-01  0.1461E-01
     -6.448  0.1606E-01  0.1549E-01
     -6.394  0.1822E-01  0.1649E-01
     -6.339  0.1572E-01  0.1734E-01
     -6.284  0.1365E-01  0.1809E-01
     -6.230  0.1484E-01  0.1890E-01
     -6.175  0.1525E-01  0.1974E-01
     -6.120  0.1123E-01  0.2035E-01
     -6.066  0.5354E-02  0.2064E-01
     -6.011  0.1884E-02  0.2075E-01
     -5.956  0.1998E-02  0.2086E-01
     -5.902  0.4949E-02  0.2113E-01
     -5.847  0.7910E-02  0.2156E-01
     -5.792  0.7263E-02  0.2196E-01
     -5.738  0.4287E-02  0.2219E-01
     -5.683  0.3640E-02  0.2239E-01
     -5.628  0.6939E-02  0.2277E-01
     -5.574  0.1169E-01  0.2341E-01
     -5.519  0.1481E-01  0.2422E-01
     -5.464  0.1552E-01  0.2507E-01
     -5.410  0.1380E-01  0.2582E-01
     -5.355  0.9503E-02  0.2634E-01
     -5.300  0.4447E-02  0.2658E-01
     -5.245  0.1283E-02  0.2665E-01
     -5.191  0.2169E-03  0.2667E-01
     -5.136  0.2094E-04  0.2667E-01
     -5.081  0.1142E-05  0.2667E-01
     -5.027  0.3497E-07  0.2667E-01
     -4.972  0.5987E-09  0.2667E-01
     -4.917  0.5753E-11  0.2667E-01
     -4.863  0.7368E-11  0.2667E-01
     -4.808  0.8263E-09  0.2667E-01
     -4.753  0.5193E-07  0.2667E-01
     -4.699  0.1826E-05  0.2667E-01
     -4.644  0.3600E-04  0.2667E-01
     -4.589  0.3993E-03  0.2669E-01
     -4.535  0.2502E-02  0.2683E-01
     -4.480  0.8910E-02  0.2731E-01
     -4.425  0.1823E-01  0.2831E-01
     -4.371  0.2200E-01  0.2951E-01
     -4.316  0.1656E-01  0.3042E-01
     -4.261  0.8581E-02  0.3089E-01
     -4.207  0.3894E-02  0.3110E-01
     -4.152  0.4073E-02  0.3133E-01
     -4.097  0.8857E-02  0.3181E-01
     -4.043  0.1515E-01  0.3264E-01
     -3.988  0.1871E-01  0.3366E-01
     -3.933  0.1734E-01  0.3461E-01
     -3.878  0.1150E-01  0.3524E-01
     -3.824  0.5958E-02  0.3556E-01
     -3.769  0.5860E-02  0.3588E-01
     -3.714  0.1093E-01  0.3648E-01
     -3.660  0.1658E-01  0.3739E-01
     -3.605  0.1910E-01  0.3843E-01
     -3.550  0.1709E-01  0.3937E-01
     -3.496  0.1121E-01  0.3998E-01
     -3.441  0.6453E-02  0.4033E-01
     -3.386  0.6603E-02  0.4069E-01
     -3.332  0.8288E-02  0.4115E-01
     -3.277  0.7007E-02  0.4153E-01
     -3.222  0.4499E-02  0.4178E-01
     -3.168  0.4085E-02  0.4200E-01
     -3.113  0.4967E-02  0.4227E-01
     -3.058  0.6649E-02  0.4264E-01
     -3.004  0.1126E-01  0.4325E-01
     -2.949  0.1597E-01  0.4412E-01
     -2.894  0.1411E-01  0.4490E-01
     -2.840  0.7262E-02  0.4529E-01
     -2.785  0.2150E-02  0.4541E-01
     -2.730  0.3648E-03  0.4543E-01
     -2.676  0.3539E-04  0.4543E-01
     -2.621  0.2258E-05  0.4543E-01
     -2.566  0.7036E-05  0.4543E-01
     -2.511  0.9013E-04  0.4544E-01
     -2.457  0.6555E-03  0.4547E-01
     -2.402  0.2696E-02  0.4562E-01
     -2.347  0.6342E-02  0.4597E-01
     -2.293  0.8943E-02  0.4646E-01
     -2.238  0.8987E-02  0.4695E-01
     -2.183  0.8873E-02  0.4743E-01
     -2.129  0.8545E-02  0.4790E-01
     -2.074  0.5884E-02  0.4822E-01
     -2.019  0.2516E-02  0.4836E-01
     -1.965  0.9452E-03  0.4841E-01
     -1.910  0.1460E-02  0.4849E-01
     -1.855  0.3152E-02  0.4866E-01
     -1.801  0.4075E-02  0.4889E-01
     -1.746  0.2989E-02  0.4905E-01
     -1.691  0.1241E-02  0.4912E-01
     -1.637  0.2922E-03  0.4913E-01
     -1.582  0.6147E-04  0.4914E-01
     -1.527  0.2609E-03  0.4915E-01
     -1.473  0.1686E-02  0.4924E-01
     -1.418  0.6479E-02  0.4960E-01
     -1.363  0.1491E-01  0.5041E-01
     -1.309  0.2139E-01  0.5158E-01
     -1.254  0.2158E-01  0.5276E-01
     -1.199  0.1923E-01  0.5381E-01
     -1.144  0.1718E-01  0.5475E-01
     -1.090  0.1464E-01  0.5555E-01
     -1.035  0.1177E-01  0.5620E-01
     -0.980  0.8779E-02  0.5668E-01
     -0.926  0.7619E-02  0.5709E-01
     -0.871  0.8709E-02  0.5757E-01
     -0.816  0.9040E-02  0.5806E-01
     -0.762  0.1029E-01  0.5863E-01
     -0.707  0.1656E-01  0.5953E-01
     -0.652  0.2340E-01  0.6081E-01
     -0.598  0.2395E-01  0.6212E-01
     -0.543  0.1988E-01  0.6321E-01
     -0.488  0.1556E-01  0.6406E-01
     -0.434  0.1319E-01  0.6478E-01
     -0.379  0.1246E-01  0.6546E-01
     -0.324  0.1211E-01  0.6612E-01
     -0.270  0.1191E-01  0.6677E-01
     -0.215  0.1180E-01  0.6742E-01
     -0.160  0.1345E-01  0.6816E-01
     -0.106  0.1843E-01  0.6916E-01
     -0.051  0.2299E-01  0.7042E-01
      0.004  0.2138E-01  0.7159E-01
      0.059  0.1496E-01  0.7241E-01
      0.113  0.1065E-01  0.7299E-01
      0.168  0.1339E-01  0.7372E-01
      0.223  0.2239E-01  0.7495E-01
      0.277  0.2855E-01  0.7651E-01
      0.332  0.2525E-01  0.7789E-01
      0.387  0.1876E-01  0.7891E-01
      0.441  0.1689E-01  0.7984E-01
      0.496  0.1720E-01  0.8078E-01
      0.551  0.1428E-01  0.8156E-01
      0.605  0.1165E-01  0.8220E-01
      0.660  0.1587E-01  0.8306E-01
      0.715  0.2368E-01  0.8436E-01
      0.769  0.2501E-01  0.8573E-01
      0.824  0.1744E-01  0.8668E-01
      0.879  0.9831E-02  0.8722E-01
      0.933  0.1016E-01  0.8777E-01
      0.988  0.1577E-01  0.8863E-01
      1.043  0.1792E-01  0.8961E-01
      1.097  0.1432E-01  0.9040E-01
      1.152  0.1081E-01  0.9099E-01
      1.207  0.1185E-01  0.9164E-01
      1.261  0.1647E-01  0.9254E-01
      1.316  0.2131E-01  0.9370E-01
      1.371  0.2297E-01  0.9496E-01
      1.426  0.1999E-01  0.9605E-01
      1.480  0.1618E-01  0.9694E-01
      1.535  0.1541E-01  0.9778E-01
      1.590  0.1487E-01  0.9859E-01
      1.644  0.1143E-01  0.9922E-01
      1.699  0.6956E-02  0.9960E-01
      1.754  0.4221E-02  0.9983E-01
      1.808  0.3765E-02  0.1000E+00
      1.863  0.4945E-02  0.1003E+00
      1.918  0.8546E-02  0.1008E+00
      1.972  0.1375E-01  0.1015E+00
      2.027  0.1544E-01  0.1024E+00
      2.082  0.1167E-01  0.1030E+00
      2.136  0.6899E-02  0.1034E+00
      2.191  0.5476E-02  0.1037E+00
      2.246  0.7227E-02  0.1041E+00
      2.300  0.8593E-02  0.1045E+00
      2.355  0.7650E-02  0.1050E+00
      2.410  0.5166E-02  0.1052E+00
      2.464  0.2467E-02  0.1054E+00
      2.519  0.7582E-03  0.1054E+00
      2.574  0.2512E-03  0.1054E+00
      2.628  0.6749E-03  0.1055E+00
      2.683  0.2099E-02  0.1056E+00
      2.738  0.3767E-02  0.1058E+00
      2.793  0.3835E-02  0.1060E+00
      2.847  0.2281E-02  0.1061E+00
      2.902  0.1163E-02  0.1062E+00
      2.957  0.1543E-02  0.1063E+00
      3.011  0.2533E-02  0.1064E+00
      3.066  0.2556E-02  0.1066E+00
      3.121  0.1563E-02  0.1066E+00
      3.175  0.1108E-02  0.1067E+00
      3.230  0.2298E-02  0.1068E+00
      3.285  0.4776E-02  0.1071E+00
      3.339  0.6992E-02  0.1075E+00
      3.394  0.7488E-02  0.1079E+00
      3.449  0.5678E-02  0.1082E+00
      3.503  0.2852E-02  0.1083E+00
      3.558  0.1440E-02  0.1084E+00
      3.613  0.2762E-02  0.1086E+00
      3.667  0.6272E-02  0.1089E+00
      3.722  0.8782E-02  0.1094E+00
      3.777  0.7837E-02  0.1098E+00
      3.831  0.5640E-02  0.1101E+00
      3.886  0.5570E-02  0.1104E+00
      3.941  0.9170E-02  0.1109E+00
      3.996  0.1456E-01  0.1117E+00
      4.050  0.1664E-01  0.1126E+00
      4.105  0.1508E-01  0.1135E+00
      4.160  0.1522E-01  0.1143E+00
      4.214  0.1726E-01  0.1153E+00
      4.269  0.1753E-01  0.1162E+00
      4.324  0.1734E-01  0.1172E+00
      4.378  0.1804E-01  0.1181E+00
      4.433  0.1705E-01  0.1191E+00
      4.488  0.1536E-01  0.1199E+00
      4.542  0.1749E-01  0.1209E+00
      4.597  0.2184E-01  0.1221E+00
      4.652  0.2229E-01  0.1233E+00
      4.706  0.2033E-01  0.1244E+00
      4.761  0.1920E-01  0.1254E+00
      4.816  0.1591E-01  0.1263E+00
      4.870  0.1095E-01  0.1269E+00
      4.925  0.8380E-02  0.1274E+00
      4.980  0.9238E-02  0.1279E+00
      5.034  0.1111E-01  0.1285E+00
      5.089  0.1063E-01  0.1291E+00
      5.144  0.8322E-02  0.1295E+00
      5.198  0.7668E-02  0.1299E+00
      5.253  0.8655E-02  0.1304E+00
      5.308  0.7533E-02  0.1308E+00
      5.363  0.4341E-02  0.1311E+00
      5.417  0.2806E-02  0.1312E+00
      5.472  0.3662E-02  0.1314E+00
      5.527  0.4477E-02  0.1317E+00
      5.581  0.4716E-02  0.1319E+00
      5.636  0.6386E-02  0.1323E+00
      5.691  0.8268E-02  0.1327E+00
      5.745  0.6860E-02  0.1331E+00
      5.800  0.3285E-02  0.1333E+00
      5.855  0.8919E-03  0.1333E+00
      5.909  0.1367E-03  0.1333E+00
      5.964  0.1179E-04  0.1333E+00
      6.019  0.5705E-06  0.1333E+00
      6.073  0.1546E-07  0.1333E+00
      6.128  0.2340E-09  0.1333E+00
      6.183  0.1973E-11  0.1333E+00
      6.237  0.9253E-14  0.1333E+00
      6.292  0.2406E-16  0.1333E+00
      6.347  0.0000E+00  0.1333E+00
      6.401  0.0000E+00  0.1333E+00
      6.456  0.0000E+00  0.1333E+00
      6.511  0.0000E+00  0.1333E+00
      6.565  0.0000E+00  0.1333E+00
      6.620  0.0000E+00  0.1333E+00
      6.675  0.0000E+00  0.1333E+00
