    8    8  300    1
  0.2392351E+02  0.5762863E-09  0.5762863E-09  0.5762863E-09  0.5000000E-15
  1.000000000000000E-004
  CAR 
 unknown system                          
   24   10   20
 
  0.8333333E-01  0.8333333E-01  0.8333333E-01  0.3703704E-01
   1       -8.729292
   2       -5.583723
   3       -5.583723
   4       -5.583723
   5       -4.413207
   6       -4.413207
   7       -4.413207
   8       -0.318523
   9       -0.318523
  10       -0.318523
  11        0.076573
  12        0.076573
  13        0.076573
  14        1.928227
  15        3.012238
  16        3.012238
  17        3.288865
  18        3.288865
  19        3.288865
  20        3.851390
 
  0.2500000E+00  0.8333333E-01  0.8333333E-01  0.1111111E+00
   1       -8.511916
   2       -6.600430
   3       -5.504449
   4       -5.504449
   5       -4.409199
   6       -4.409199
   7       -3.143937
   8       -0.875005
   9       -0.875005
  10       -0.107049
  11       -0.107049
  12       -0.040338
  13        0.309974
  14        0.731265
  15        2.242849
  16        2.356657
  17        3.387885
  18        4.007496
  19        4.007496
  20        4.314294
 
  0.4166667E+00  0.8333333E-01  0.8333333E-01  0.1111111E+00
   1       -8.079798
   2       -7.438944
   3       -5.413671
   4       -5.413671
   5       -4.417332
   6       -4.417332
   7       -1.830405
   8       -1.193937
   9       -1.193937
  10       -0.531230
  11       -0.420966
  12       -0.420966
  13        0.517946
  14        0.768259
  15        1.344532
  16        1.430115
  17        3.688983
  18        4.198089
  19        5.091316
  20        5.487752
 
  0.2500000E+00  0.2500000E+00  0.8333333E-01  0.1111111E+00
   1       -8.298373
   2       -6.448141
   3       -6.448141
   4       -5.608834
   5       -4.314169
   6       -3.350733
   7       -3.350733
   8       -1.319667
   9       -0.570826
  10       -0.570826
  11       -0.278241
  12        0.251783
  13        0.251783
  14        0.473826
  15        1.522016
  16        2.739385
  17        3.701304
  18        4.211886
  19        4.211886
  20        4.604368
 
  0.4166667E+00  0.2500000E+00  0.8333333E-01  0.2222222E+00
   1       -7.875311
   2       -7.252284
   3       -6.175039
   4       -5.856155
   5       -4.070414
   6       -3.706755
   7       -2.321406
   8       -1.357790
   9       -1.314245
  10       -1.056719
  11       -0.028373
  12        0.254212
  13        0.459365
  14        0.686203
  15        0.985939
  16        1.977095
  17        4.567281
  18        4.601504
  19        5.011324
  20        5.674845
 
  0.4166667E+00  0.4166667E+00  0.8333333E-01  0.1111111E+00
   1       -7.473913
   2       -6.894181
   3       -6.894181
   4       -6.402613
   5       -3.576353
   6       -2.970571
   7       -2.970571
   8       -2.176595
   9       -1.160322
  10       -0.676082
  11       -0.676082
  12       -0.071456
  13        1.197686
  14        1.260381
  15        1.260381
  16        2.063393
  17        4.373105
  18        4.877679
  19        5.246854
  20        5.246854
 
  0.2500000E+00  0.2500000E+00  0.2500000E+00  0.3703704E-01
   1       -8.090410
   2       -6.352716
   3       -6.352716
   4       -6.352716
   5       -3.654687
   6       -3.654687
   7       -3.654687
   8       -1.222992
   9       -0.699559
  10       -0.699559
  11       -0.699559
  12        0.682737
  13        0.682737
  14        0.682737
  15        2.263066
  16        2.263066
  17        3.795265
  18        3.963594
  19        3.963594
  20        3.963594
 
  0.4166667E+00  0.2500000E+00  0.2500000E+00  0.1111111E+00
   1       -7.681252
   2       -7.088296
   3       -6.241253
   4       -6.241253
   5       -3.953144
   6       -3.953144
   7       -2.942729
   8       -2.144365
   9       -0.663544
  10       -0.663544
  11        0.350234
  12        0.751658
  13        0.751658
  14        1.085130
  15        1.550125
  16        1.641849
  17        4.348919
  18        4.401913
  19        4.762449
  20        4.762449
 
  0.4166667E+00  0.4166667E+00  0.2500000E+00  0.1111111E+00
   1       -7.307636
   2       -6.794546
   3       -6.794546
   4       -6.462747
   5       -3.957363
   6       -3.576456
   7       -3.576456
   8       -2.954384
   9       -0.205411
  10        0.217975
  11        0.217975
  12        0.977328
  13        1.330289
  14        1.365199
  15        1.365199
  16        1.983123
  17        4.138927
  18        4.457508
  19        4.727793
  20        4.727793
 
  0.4166667E+00  0.4166667E+00  0.4166667E+00  0.3703704E-01
   1       -7.010360
   2       -6.677891
   3       -6.677891
   4       -6.677891
   5       -4.030717
   6       -4.030717
   7       -4.030717
   8       -3.651509
   9        1.020985
  10        1.020985
  11        1.020985
  12        1.557714
  13        1.557714
  14        1.557714
  15        1.803861
  16        1.803861
  17        3.390194
  18        4.034283
  19        4.034283
  20        4.034283
