 running on   20 total cores
 distrk:  each k-point on   20 cores,    1 groups
 distr:  one band on    1 cores,   20 groups
 using from now: INCAR     
 vasp.5.3.3 18Dez12 (build Dec 13 2014 13:36:02) complex                        
  
 POSCAR found type information on POSCAR  Ge
 POSCAR found :  1 types and       8 ions
 scaLAPACK will be used

 ----------------------------------------------------------------------------- 
|                                                                             |
|           W    W    AA    RRRRR   N    N  II  N    N   GGGG   !!!           |
|           W    W   A  A   R    R  NN   N  II  NN   N  G    G  !!!           |
|           W    W  A    A  R    R  N N  N  II  N N  N  G       !!!           |
|           W WW W  AAAAAA  RRRRR   N  N N  II  N  N N  G  GGG   !            |
|           WW  WW  A    A  R   R   N   NN  II  N   NN  G    G                |
|           W    W  A    A  R    R  N    N  II  N    N   GGGG   !!!           |
|                                                                             |
|      For optimal performance we recommend that you set                      |
|        NPAR = 4 - approx SQRT( number of cores)                             |
|      (number of cores/NPAR must be integer)                                 |
|      This setting will greatly improve the performance of VASP for DFT.     |
|      The default NPAR=number of cores might be grossly inefficient          |
|      on modern multi-core architectures or massively parallel machines.     |
|      Do your own testing.                                                   |
|      Unfortunately you need to use the default for hybrid, GW and RPA       |
|      calculations.                                                          |
|                                                                             |
 ----------------------------------------------------------------------------- 

 WARNING: type information on POSCAR and POTCAR are incompatible
 POTCAR overwrites the type information in POSCAR
 typ   1 type information:  Ge Ga
 LDA part: xc-table for Pade appr. of Perdew
 POSCAR, INCAR and KPOINTS ok, starting setup
 WARNING: small aliasing (wrap around) errors must be expected
 FFT: planning ...
 WAVECAR not read
 entering main loop
       N       E                     dE             d eps       ncg     rms          rms(c)
DAV:   1     0.732057025418E+02    0.73206E+02   -0.10202E+04   400   0.118E+03
DAV:   2    -0.191018633902E+02   -0.92308E+02   -0.91899E+02   620   0.107E+02
DAV:   3    -0.210106204732E+02   -0.19088E+01   -0.19061E+01   480   0.218E+01
DAV:   4    -0.210178982172E+02   -0.72777E-02   -0.72772E-02   700   0.133E+00
DAV:   5    -0.210178987871E+02   -0.56992E-06   -0.56985E-06   500   0.108E-02    0.278E+00
RMM:   6    -0.209352189902E+02    0.82680E-01   -0.13489E-02   400   0.105E+00    0.172E+00
RMM:   7    -0.208926214769E+02    0.42598E-01   -0.35860E-02   400   0.166E+00    0.985E-02
RMM:   8    -0.208928811711E+02   -0.25969E-03   -0.52629E-04   400   0.131E-01    0.196E-02
RMM:   9    -0.208929183156E+02   -0.37144E-04   -0.70186E-05   400   0.469E-02    0.750E-03
RMM:  10    -0.208929289625E+02   -0.10647E-04   -0.66924E-06   400   0.120E-02    0.119E-03
RMM:  11    -0.208929294628E+02   -0.50037E-06   -0.52764E-07   243   0.355E-03
   1 F= -.20892929E+02 E0= -.20878968E+02  d E =-.208929E+02
 curvature:   0.00 expect dE= 0.000E+00 dE for cont linesearch  0.000E+00
 trial: gam= 0.00000 g(F)=  0.903E-60 g(S)=  0.198E+00 ort = 0.000E+00 (trialstep = 0.100E+01)
 search vector abs. value=  0.198E+00
 bond charge predicted
       N       E                     dE             d eps       ncg     rms          rms(c)
DAV:   1    -0.210480514240E+02   -0.15512E+00   -0.19578E+00   620   0.555E+00    0.793E-01
RMM:   2    -0.210136359395E+02    0.34415E-01   -0.18773E-02   400   0.738E-01    0.472E-01
RMM:   3    -0.209945455151E+02    0.19090E-01   -0.34708E-02   400   0.767E-01    0.269E-02
RMM:   4    -0.209947039696E+02   -0.15845E-03   -0.34593E-04   400   0.840E-02    0.861E-03
RMM:   5    -0.209947237331E+02   -0.19764E-04   -0.22498E-05   399   0.205E-02    0.232E-03
RMM:   6    -0.209947224274E+02    0.13058E-05   -0.26866E-06   285   0.634E-03    0.204E-03
RMM:   7    -0.209947226046E+02   -0.17727E-06   -0.68287E-07   233   0.427E-03
   2 F= -.20994723E+02 E0= -.20981601E+02  d E =-.101793E+00
 trial-energy change:   -0.101793  1 .order   -0.105270   -0.198062   -0.012478
 step:   1.0765(harm=  1.0672)  dis= 0.00000  next Energy=   -20.995198 (dE=-0.102E+00)
 bond charge predicted
       N       E                     dE             d eps       ncg     rms          rms(c)
DAV:   1    -0.209954792846E+02   -0.75686E-03   -0.11628E-02   600   0.433E-01    0.609E-02
RMM:   2    -0.209952715264E+02    0.20776E-03   -0.10737E-04   400   0.550E-02    0.363E-02
RMM:   3    -0.209951498747E+02    0.12165E-03   -0.20336E-04   400   0.587E-02    0.203E-03
RMM:   4    -0.209951519284E+02   -0.20537E-05   -0.19371E-06   274   0.647E-03    0.635E-04
RMM:   5    -0.209951524898E+02   -0.56140E-06   -0.18257E-07   203   0.209E-03
   3 F= -.20995152E+02 E0= -.20982070E+02  d E =-.102223E+00
 curvature:  -0.52 expect dE=-0.574E-06 dE for cont linesearch -0.574E-06
 trial: gam= 0.00000 g(F)=  0.179E-59 g(S)=  0.110E-05 ort =-0.466E-03 (trialstep = 0.102E+01)
 search vector abs. value=  0.110E-05
 reached required accuracy - stopping structural energy minimisation
