<?xml version="1.0" encoding="ISO-8859-1"?>
<modeling>
 <generator>
  <i name="program" type="string">vasp </i>
  <i name="version" type="string">5.3.3  </i>
  <i name="subversion" type="string">18Dez12 (build Dec 13 2014 13:36:02) complex                          parallel </i>
  <i name="platform" type="string">LinuxIFC </i>
  <i name="date" type="string">2018 11 28 </i>
  <i name="time" type="string">00:58:24 </i>
 </generator>
 <incar>
  <i type="string" name="PREC">normal</i>
  <i type="string" name="ALGO"> FAST</i>
  <i type="int" name="ISPIN">     1</i>
  <i type="int" name="IBRION">     2</i>
  <i name="EDIFF">      0.00000100</i>
  <i name="EDIFFG">     -0.02000000</i>
  <i type="int" name="NSW">   300</i>
  <i type="int" name="ISIF">     3</i>
  <i type="int" name="ISYM">     1</i>
  <i name="ENCUT">    700.00000000</i>
  <i type="int" name="ISMEAR">     0</i>
  <i name="SIGMA">      0.10000000</i>
  <i type="logical" name="LWAVE"> F  </i>
  <i type="logical" name="LCHARG"> F  </i>
 </incar>
 <kpoints>
  <generation param="Monkhorst-Pack">
   <v type="int" name="divisions">       6        6        6 </v>
   <v name="usershift">      0.00000000       0.00000000       0.00000000 </v>
   <v name="genvec1">      0.16666667       0.00000000       0.00000000 </v>
   <v name="genvec2">      0.00000000       0.16666667       0.00000000 </v>
   <v name="genvec3">      0.00000000       0.00000000       0.16666667 </v>
   <v name="shift">      0.50000000       0.50000000       0.50000000 </v>
  </generation>
  <varray name="kpointlist" >
   <v>       0.08333333       0.08333333       0.08333333 </v>
   <v>       0.25000000       0.08333333       0.08333333 </v>
   <v>       0.41666667       0.08333333       0.08333333 </v>
   <v>       0.25000000       0.25000000       0.08333333 </v>
   <v>       0.41666667       0.25000000       0.08333333 </v>
   <v>       0.41666667       0.41666667       0.08333333 </v>
   <v>       0.25000000       0.25000000       0.25000000 </v>
   <v>       0.41666667       0.25000000       0.25000000 </v>
   <v>       0.41666667       0.41666667       0.25000000 </v>
   <v>       0.41666667       0.41666667       0.41666667 </v>
  </varray>
  <varray name="weights" >
   <v>       0.03703704 </v>
   <v>       0.11111111 </v>
   <v>       0.11111111 </v>
   <v>       0.11111111 </v>
   <v>       0.22222222 </v>
   <v>       0.11111111 </v>
   <v>       0.03703704 </v>
   <v>       0.11111111 </v>
   <v>       0.11111111 </v>
   <v>       0.03703704 </v>
  </varray>
 </kpoints>
 <parameters>
  <separator name="general" >
   <i type="string" name="SYSTEM">unknown system</i>
   <i type="logical" name="LCOMPAT"> F  </i>
  </separator>
  <separator name="electronic" >
   <i type="string" name="PREC">normal</i>
   <i name="ENMAX">    700.00000000</i>
   <i name="ENAUG">    320.26400000</i>
   <i name="EDIFF">      0.00000100</i>
   <i type="int" name="IALGO">    68</i>
   <i type="int" name="IWAVPR">    11</i>
   <i type="int" name="NBANDS">    20</i>
   <i name="NELECT">     24.00000000</i>
   <i type="int" name="TURBO">     0</i>
   <i type="int" name="IRESTART">     0</i>
   <i type="int" name="NREBOOT">     0</i>
   <i type="int" name="NMIN">     0</i>
   <i name="EREF">      0.00000000</i>
   <separator name="electronic smearing" >
    <i type="int" name="ISMEAR">     0</i>
    <i name="SIGMA">      0.10000000</i>
    <i name="KSPACING">      0.50000000</i>
    <i type="logical" name="KGAMMA"> T  </i>
   </separator>
   <separator name="electronic projectors" >
    <i type="logical" name="LREAL"> F  </i>
    <v name="ROPT">      0.00000000</v>
    <i type="int" name="LMAXPAW">  -100</i>
    <i type="int" name="LMAXMIX">     2</i>
    <i type="logical" name="NLSPLINE"> F  </i>
   </separator>
   <separator name="electronic startup" >
    <i type="int" name="ISTART">     0</i>
    <i type="int" name="ICHARG">     2</i>
    <i type="int" name="INIWAV">     1</i>
   </separator>
   <separator name="electronic spin" >
    <i type="int" name="ISPIN">     1</i>
    <i type="logical" name="LNONCOLLINEAR"> F  </i>
    <v name="MAGMOM">      1.00000000      1.00000000      1.00000000      1.00000000      1.00000000      1.00000000      1.00000000      1.00000000</v>
    <i name="NUPDOWN">     -1.00000000</i>
    <i type="logical" name="LSORBIT"> F  </i>
    <v name="SAXIS">      0.00000000      0.00000000      1.00000000</v>
    <i type="logical" name="LSPIRAL"> F  </i>
    <v name="QSPIRAL">      0.00000000      0.00000000      0.00000000</v>
    <i type="logical" name="LZEROZ"> F  </i>
   </separator>
   <separator name="electronic exchange-correlation" >
    <i type="logical" name="LASPH"> F  </i>
    <i type="logical" name="LMETAGGA"> F  </i>
   </separator>
   <separator name="electronic convergence" >
    <i type="int" name="NELM">    60</i>
    <i type="int" name="NELMDL">    -5</i>
    <i type="int" name="NELMIN">     2</i>
    <i name="ENINI">    700.00000000</i>
    <separator name="electronic convergence detail" >
     <i type="logical" name="LDIAG"> T  </i>
     <i type="logical" name="LSUBROT"> T  </i>
     <i name="WEIMIN">      0.00100000</i>
     <i name="EBREAK">      0.00000001</i>
     <i name="DEPER">      0.30000000</i>
     <i type="int" name="NRMM">     4</i>
     <i name="TIME">      0.40000000</i>
    </separator>
   </separator>
   <separator name="electronic mixer" >
    <i name="AMIX">      0.40000000</i>
    <i name="BMIX">      1.00000000</i>
    <i name="AMIN">      0.10000000</i>
    <i name="AMIX_MAG">      1.60000000</i>
    <i name="BMIX_MAG">      1.00000000</i>
    <separator name="electronic mixer details" >
     <i type="int" name="IMIX">     4</i>
     <i type="int" name="MAXMIX">   -45</i>
     <i name="WC">    100.00000000</i>
     <i type="int" name="INIMIX">     1</i>
     <i type="int" name="MIXPRE">     1</i>
     <i type="int" name="MREMOVE">     5</i>
    </separator>
   </separator>
   <separator name="electronic dipolcorrection" >
    <i type="logical" name="LDIPOL"> F  </i>
    <i type="logical" name="LMONO"> F  </i>
    <i type="int" name="IDIPOL">     0</i>
    <i name="EPSILON">      1.00000000</i>
    <v name="DIPOL">   -100.00000000   -100.00000000   -100.00000000</v>
    <i name="EFIELD">      0.00000000</i>
   </separator>
  </separator>
  <separator name="grids" >
   <i type="int" name="NGX">    40</i>
   <i type="int" name="NGY">    40</i>
   <i type="int" name="NGZ">    40</i>
   <i type="int" name="NGXF">    80</i>
   <i type="int" name="NGYF">    80</i>
   <i type="int" name="NGZF">    80</i>
   <i type="logical" name="ADDGRID"> F  </i>
  </separator>
  <separator name="ionic" >
   <i type="int" name="NSW">   300</i>
   <i type="int" name="IBRION">     2</i>
   <i type="int" name="ISIF">     3</i>
   <i name="PSTRESS">      0.00000000</i>
   <i name="EDIFFG">     -0.02000000</i>
   <i type="int" name="NFREE">     1</i>
   <i name="POTIM">      0.50000000</i>
   <i name="SMASS">     -3.00000000</i>
   <i name="SCALEE">      1.00000000</i>
  </separator>
  <separator name="ionic md" >
   <i name="TEBEG">      0.00010000</i>
   <i name="TEEND">      0.00010000</i>
   <i type="int" name="NBLOCK">     1</i>
   <i type="int" name="KBLOCK">   300</i>
   <i type="int" name="NPACO">   256</i>
   <i name="APACO">     16.00000000</i>
  </separator>
  <separator name="symmetry" >
   <i type="int" name="ISYM">     1</i>
   <i name="SYMPREC">      0.00001000</i>
  </separator>
  <separator name="dos" >
   <i type="logical" name="LORBIT"> F  </i>
   <v name="RWIGS">     -1.00000000</v>
   <i type="int" name="NEDOS">   301</i>
   <i name="EMIN">     10.00000000</i>
   <i name="EMAX">    -10.00000000</i>
   <i name="EFERMI">      0.00000000</i>
  </separator>
  <separator name="writing" >
   <i type="int" name="NWRITE">     2</i>
   <i type="logical" name="LWAVE"> F  </i>
   <i type="logical" name="LCHARG"> F  </i>
   <i type="logical" name="LPARD"> F  </i>
   <i type="logical" name="LVTOT"> F  </i>
   <i type="logical" name="LVHAR"> F  </i>
   <i type="logical" name="LELF"> F  </i>
   <i type="logical" name="LOPTICS"> F  </i>
   <v name="STM">      0.00000000      0.00000000      0.00000000      0.00000000      0.00000000      0.00000000      0.00000000</v>
  </separator>
  <separator name="performance" >
   <i type="int" name="NPAR">    20</i>
   <i type="int" name="NSIM">     4</i>
   <i type="int" name="NBLK">    -1</i>
   <i type="logical" name="LPLANE"> T  </i>
   <i type="logical" name="LSCALAPACK"> T  </i>
   <i type="logical" name="LSCAAWARE"> F  </i>
   <i type="logical" name="LSCALU"> F  </i>
   <i type="logical" name="LASYNC"> F  </i>
   <i type="logical" name="LORBITALREAL"> F  </i>
  </separator>
  <separator name="miscellaneous" >
   <i type="int" name="IDIOT">     3</i>
   <i type="logical" name="LMUSIC"> F  </i>
   <v name="POMASS">     69.72300000</v>
   <v name="DARWINR">      0.00000000</v>
   <v name="DARWINV">      1.00000000</v>
   <i type="logical" name="LCORR"> T  </i>
  </separator>
  <i type="logical" name="GGA_COMPAT"> T  </i>
  <i type="logical" name="LBERRY"> F  </i>
  <i type="int" name="ICORELEVEL">     0</i>
  <i type="logical" name="LDAU"> F  </i>
  <i type="int" name="I_CONSTRAINED_M">     0</i>
  <separator name="electronic exchange-correlation" >
   <i type="string" name="GGA">--</i>
   <i type="int" name="VOSKOWN">     0</i>
   <i type="logical" name="LHFCALC"> F  </i>
   <i type="string" name="PRECFOCK"></i>
   <i type="logical" name="LSYMGRAD"> F  </i>
   <i type="logical" name="LHFONE"> F  </i>
   <i type="logical" name="LRHFCALC"> F  </i>
   <i type="logical" name="LTHOMAS"> F  </i>
   <i type="logical" name="LMODELHF"> F  </i>
   <i name="ENCUT4O">     -1.00000000</i>
   <i type="int" name="EXXOEP">     0</i>
   <i type="int" name="FOURORBIT">     0</i>
   <i name="AEXX">      0.00000000</i>
   <i name="HFALPHA">      0.00000000</i>
   <i name="MCALPHA">      0.00000000</i>
   <i name="ALDAX">      1.00000000</i>
   <i name="AGGAX">      1.00000000</i>
   <i name="ALDAC">      1.00000000</i>
   <i name="AGGAC">      1.00000000</i>
   <i type="int" name="NKREDX">     1</i>
   <i type="int" name="NKREDY">     1</i>
   <i type="int" name="NKREDZ">     1</i>
   <i type="logical" name="SHIFTRED"> F  </i>
   <i type="logical" name="ODDONLY"> F  </i>
   <i type="logical" name="EVENONLY"> F  </i>
   <i type="int" name="LMAXFOCK">     0</i>
   <i type="int" name="NMAXFOCKAE">     0</i>
   <i type="logical" name="LFOCKAEDFT"> F  </i>
   <i name="HFSCREEN">      0.00000000</i>
   <i name="HFSCREENC">      0.00000000</i>
   <i type="int" name="NBANDSGWLOW">     0</i>
  </separator>
  <separator name="vdW DFT" >
   <i type="logical" name="LUSE_VDW"> F  </i>
   <i name="Zab_VDW">     -0.84910000</i>
   <i name="PARAM1">      0.12340000</i>
   <i name="PARAM2">      1.00000000</i>
   <i name="PARAM3">      0.00000000</i>
  </separator>
  <separator name="model GW" >
   <i type="int" name="MODEL_GW">     0</i>
   <i name="MODEL_EPS0">     14.35410601</i>
   <i name="MODEL_ALPHA">      1.00000000</i>
  </separator>
  <separator name="linear response parameters" >
   <i type="logical" name="LEPSILON"> F  </i>
   <i type="logical" name="LRPA"> F  </i>
   <i type="logical" name="LNABLA"> F  </i>
   <i type="logical" name="LVEL"> F  </i>
   <i type="int" name="KINTER">     0</i>
   <i name="CSHIFT">      0.10000000</i>
   <i name="OMEGAMAX">     -1.00000000</i>
   <i name="DEG_THRESHOLD">      0.00200000</i>
  </separator>
  <separator name="orbital magnetization" >
   <i type="logical" name="NUCIND"> F  </i>
   <v name="MAGPOS">      0.00000000      0.00000000      0.00000000</v>
   <i type="logical" name="LNICSALL"> T  </i>
   <i type="logical" name="ORBITALMAG"> F  </i>
   <i type="logical" name="LMAGBLOCH"> F  </i>
   <i type="logical" name="LCHIMAG"> F  </i>
   <i type="logical" name="LGAUGE"> T  </i>
   <i type="int" name="MAGATOM">     0</i>
   <v name="MAGDIPOL">      0.00000000      0.00000000      0.00000000</v>
   <v name="AVECCONST">      0.00000000      0.00000000      0.00000000</v>
  </separator>
  <separator name="response functions" >
   <i type="logical" name="LADDER"> F  </i>
   <i type="logical" name="LFXC"> F  </i>
   <i type="logical" name="LHARTREE"> T  </i>
   <i type="int" name="IBSE">     0</i>
   <i type="logical" name="LTCTE"> F  </i>
   <i type="logical" name="LTETE"> F  </i>
   <i type="logical" name="LTRIPLET"> F  </i>
   <i type="logical" name="LFXCEPS"> F  </i>
   <i type="logical" name="L2ORDER"> F  </i>
   <i type="logical" name="LUSEW"> F  </i>
   <i name="ENCUTGW">     -2.00000000</i>
   <i name="ENCUTGWSOFT">     -2.00000000</i>
   <i name="ENCUTLF">     -1.00000000</i>
   <i type="int" name="LMAXMP2">    -1</i>
   <i name="SCISSOR">      0.00000000</i>
   <i type="int" name="NOMEGA">     0</i>
   <i type="int" name="NOMEGAR">     0</i>
   <i type="int" name="NBANDSGW">    -1</i>
   <i type="int" name="NBANDSO">    -1</i>
   <i type="int" name="NBANDSV">    -1</i>
   <i type="int" name="NELM">     1</i>
   <i type="int" name="DIM">     3</i>
   <i type="int" name="ANTIRES">     0</i>
   <i name="OMEGAMAX">    -30.00000000</i>
   <i name="OMEGATL">   -200.00000000</i>
   <i type="int" name="OMEGAGRID">     0</i>
   <i name="CSHIFT">     -0.10000000</i>
   <i type="logical" name="SELFENERGY"> F  </i>
   <i type="logical" name="LSPECTRAL"> F  </i>
   <i type="logical" name="ODDONLYGW"> F  </i>
   <i type="logical" name="EVENONLYGW"> F  </i>
   <i type="int" name="NKREDLFX">     1</i>
   <i type="int" name="NKREDLFY">     1</i>
   <i type="int" name="NKREDLFZ">     1</i>
   <i type="int" name="MAXMEM">  1800</i>
   <i type="int" name="TELESCOPE">     0</i>
  </separator>
 </parameters>
 <atominfo>
  <atoms>       8 </atoms>
  <types>       1 </types>
  <array name="atoms" >
   <dimension dim="1">ion</dimension>
   <field type="string">element</field>
   <field type="int">atomtype</field>
   <set>
    <rc><c>Ga</c><c>   1</c></rc>
    <rc><c>Ga</c><c>   1</c></rc>
    <rc><c>Ga</c><c>   1</c></rc>
    <rc><c>Ga</c><c>   1</c></rc>
    <rc><c>Ga</c><c>   1</c></rc>
    <rc><c>Ga</c><c>   1</c></rc>
    <rc><c>Ga</c><c>   1</c></rc>
    <rc><c>Ga</c><c>   1</c></rc>
   </set>
  </array>
  <array name="atomtypes" >
   <dimension dim="1">type</dimension>
   <field type="int">atomspertype</field>
   <field type="string">element</field>
   <field>mass</field>
   <field>valence</field>
   <field type="string">pseudopotential</field>
   <set>
    <rc><c>   8</c><c>Ga</c><c>     69.72300000</c><c>      3.00000000</c><c> PAW_PBE Ga 08Apr2002                   </c></rc>
   </set>
  </array>
 </atominfo>
 <structure name="initialpos" >
  <crystal>
   <varray name="basis" >
    <v>       5.76286300       0.00000000       0.00000000 </v>
    <v>       0.00000000       5.76286300       0.00000000 </v>
    <v>       0.00000000       0.00000000       5.76286300 </v>
   </varray>
   <i name="volume">    191.38808007 </i>
   <varray name="rec_basis" >
    <v>       0.17352486       0.00000000       0.00000000 </v>
    <v>       0.00000000       0.17352486       0.00000000 </v>
    <v>       0.00000000       0.00000000       0.17352486 </v>
   </varray>
  </crystal>
  <varray name="positions" >
   <v>       0.75000000       0.75000000       0.75000000 </v>
   <v>       0.50000000       0.00000000       0.00000000 </v>
   <v>       0.75000000       0.25000000       0.25000000 </v>
   <v>       0.50000000       0.50000000       0.50000000 </v>
   <v>       0.25000000       0.75000000       0.25000000 </v>
   <v>       0.00000000       0.00000000       0.50000000 </v>
   <v>       0.25000000       0.25000000       0.75000000 </v>
   <v>       0.00000000       0.50000000       0.00000000 </v>
  </varray>
  <varray name="selective"  type="logical" >
   <v type="logical" >  T  T  T </v>
   <v type="logical" >  T  T  T </v>
   <v type="logical" >  T  T  T </v>
   <v type="logical" >  T  T  T </v>
   <v type="logical" >  T  T  T </v>
   <v type="logical" >  T  T  T </v>
   <v type="logical" >  T  T  T </v>
   <v type="logical" >  T  T  T </v>
  </varray>
  <nose>
   <v>      -3.00000000       0.00000000       0.00010000       0.00010000 </v>
  </nose>
 </structure>
 <calculation>
  <scstep>
   <time name="dav">    0.24    0.24</time>
   <time name="total">    0.29    0.30</time>
   <energy>
    <i name="alphaZ">     59.64982895 </i>
    <i name="ewald">   -484.56382983 </i>
    <i name="hartreedc">    -22.55400904 </i>
    <i name="XCdc">   -155.28695466 </i>
    <i name="pawpsdc">    330.10196642 </i>
    <i name="pawaedc">   -140.54714835 </i>
    <i name="eentropy">     -0.00520244 </i>
    <i name="bandstr">     15.46081221 </i>
    <i name="atom">    470.95023928 </i>
    <i name="e_fr_energy">     73.20570254 </i>
    <i name="e_wo_entrp">     73.21090498 </i>
    <i name="e_0_energy">     73.20830376 </i>
   </energy>
  </scstep>
  <scstep>
   <time name="dav">    0.34    0.34</time>
   <time name="total">    0.34    0.35</time>
   <energy>
    <i name="e_fr_energy">    -19.10186339 </i>
    <i name="e_wo_entrp">    -19.07583677 </i>
    <i name="e_0_energy">    -19.08885008 </i>
   </energy>
  </scstep>
  <scstep>
   <time name="dav">    0.28    0.28</time>
   <time name="total">    0.28    0.29</time>
   <energy>
    <i name="e_fr_energy">    -21.01062047 </i>
    <i name="e_wo_entrp">    -20.98278241 </i>
    <i name="e_0_energy">    -20.99670144 </i>
   </energy>
  </scstep>
  <scstep>
   <time name="dav">    0.39    0.39</time>
   <time name="total">    0.39    0.39</time>
   <energy>
    <i name="e_fr_energy">    -21.01789822 </i>
    <i name="e_wo_entrp">    -20.99011681 </i>
    <i name="e_0_energy">    -21.00400751 </i>
   </energy>
  </scstep>
  <scstep>
   <time name="dav">    0.28    0.29</time>
   <time name="total">    0.40    0.41</time>
   <energy>
    <i name="e_fr_energy">    -21.01789879 </i>
    <i name="e_wo_entrp">    -20.99011738 </i>
    <i name="e_0_energy">    -21.00400808 </i>
   </energy>
  </scstep>
  <scstep>
   <time name="diag">    0.06    0.08</time>
   <time name="diis">    0.19    0.19</time>
   <time name="orth">    0.00    0.00</time>
   <time name="total">    0.39    0.42</time>
   <energy>
    <i name="e_fr_energy">    -20.93521899 </i>
    <i name="e_wo_entrp">    -20.90740408 </i>
    <i name="e_0_energy">    -20.92131153 </i>
   </energy>
  </scstep>
  <scstep>
   <time name="diag">    0.04    0.04</time>
   <time name="diis">    0.20    0.20</time>
   <time name="orth">    0.00    0.00</time>
   <time name="total">    0.38    0.38</time>
   <energy>
    <i name="e_fr_energy">    -20.89262148 </i>
    <i name="e_wo_entrp">    -20.86474404 </i>
    <i name="e_0_energy">    -20.87868276 </i>
   </energy>
  </scstep>
  <scstep>
   <time name="diag">    0.04    0.04</time>
   <time name="diis">    0.19    0.19</time>
   <time name="orth">    0.00    0.00</time>
   <time name="total">    0.38    0.38</time>
   <energy>
    <i name="e_fr_energy">    -20.89288117 </i>
    <i name="e_wo_entrp">    -20.86497668 </i>
    <i name="e_0_energy">    -20.87892893 </i>
   </energy>
  </scstep>
  <scstep>
   <time name="diag">    0.04    0.04</time>
   <time name="diis">    0.19    0.20</time>
   <time name="orth">    0.00    0.00</time>
   <time name="total">    0.38    0.38</time>
   <energy>
    <i name="e_fr_energy">    -20.89291832 </i>
    <i name="e_wo_entrp">    -20.86500115 </i>
    <i name="e_0_energy">    -20.87895973 </i>
   </energy>
  </scstep>
  <scstep>
   <time name="diag">    0.04    0.04</time>
   <time name="diis">    0.19    0.19</time>
   <time name="orth">    0.00    0.00</time>
   <time name="total">    0.38    0.38</time>
   <energy>
    <i name="e_fr_energy">    -20.89292896 </i>
    <i name="e_wo_entrp">    -20.86500700 </i>
    <i name="e_0_energy">    -20.87896798 </i>
   </energy>
  </scstep>
  <scstep>
   <time name="diag">    0.04    0.04</time>
   <time name="diis">    0.18    0.18</time>
   <time name="orth">    0.00    0.00</time>
   <time name="total">    0.25    0.25</time>
   <energy>
    <i name="alphaZ">     59.64982895 </i>
    <i name="ewald">   -484.56382983 </i>
    <i name="hartreedc">    -24.23342087 </i>
    <i name="XCdc">   -153.72284082 </i>
    <i name="pawpsdc">    420.23926597 </i>
    <i name="pawaedc">   -232.09819436 </i>
    <i name="eentropy">     -0.02792313 </i>
    <i name="bandstr">    -77.08605464 </i>
    <i name="atom">    470.95023928 </i>
    <i name="e_fr_energy">    -20.89292946 </i>
    <i name="e_wo_entrp">    -20.86500633 </i>
    <i name="e_0_energy">    -20.87896790 </i>
   </energy>
  </scstep>
  <structure>
   <crystal>
    <varray name="basis" >
     <v>       5.76286300       0.00000000       0.00000000 </v>
     <v>       0.00000000       5.76286300       0.00000000 </v>
     <v>       0.00000000       0.00000000       5.76286300 </v>
    </varray>
    <i name="volume">    191.38808007 </i>
    <varray name="rec_basis" >
     <v>       0.17352486       0.00000000       0.00000000 </v>
     <v>       0.00000000       0.17352486       0.00000000 </v>
     <v>       0.00000000       0.00000000       0.17352486 </v>
    </varray>
   </crystal>
   <varray name="positions" >
    <v>       0.75000000       0.75000000       0.75000000 </v>
    <v>       0.50000000       0.00000000       0.00000000 </v>
    <v>       0.75000000       0.25000000       0.25000000 </v>
    <v>       0.50000000       0.50000000       0.50000000 </v>
    <v>       0.25000000       0.75000000       0.25000000 </v>
    <v>       0.00000000       0.00000000       0.50000000 </v>
    <v>       0.25000000       0.25000000       0.75000000 </v>
    <v>       0.00000000       0.50000000       0.00000000 </v>
   </varray>
  </structure>
  <varray name="forces" >
   <v>       0.00000000       0.00000000      -0.00000000 </v>
   <v>      -0.00000000      -0.00000000      -0.00000000 </v>
   <v>       0.00000000      -0.00000000      -0.00000000 </v>
   <v>      -0.00000000      -0.00000000      -0.00000000 </v>
   <v>       0.00000000       0.00000000       0.00000000 </v>
   <v>      -0.00000000      -0.00000000      -0.00000000 </v>
   <v>       0.00000000       0.00000000      -0.00000000 </v>
   <v>      -0.00000000       0.00000000       0.00000000 </v>
  </varray>
  <varray name="stress" >
   <v>      27.69904823       0.00000000       0.00000000 </v>
   <v>       0.00000000      27.69904823       0.00000000 </v>
   <v>      -0.00000000       0.00000000      27.69904823 </v>
  </varray>
  <energy>
   <i name="e_fr_energy">    -20.89292946 </i>
   <i name="e_wo_entrp">    -20.87896790 </i>
   <i name="e_0_energy">     -0.02792313 </i>
  </energy>
  <time name="totalsc">    4.78    4.87</time>
 </calculation>
 <calculation>
  <scstep>
   <time name="dav">    0.34    0.35</time>
   <time name="total">    0.49    0.50</time>
   <energy>
    <i name="alphaZ">     56.21712055 </i>
    <i name="ewald">   -475.08442334 </i>
    <i name="hartreedc">    -23.75848402 </i>
    <i name="XCdc">   -153.87766435 </i>
    <i name="pawpsdc">    420.25043938 </i>
    <i name="pawaedc">   -232.10953784 </i>
    <i name="eentropy">     -0.02610842 </i>
    <i name="bandstr">    -83.60963266 </i>
    <i name="atom">    470.95023928 </i>
    <i name="e_fr_energy">    -21.04805142 </i>
    <i name="e_wo_entrp">    -21.02194301 </i>
    <i name="e_0_energy">    -21.03499722 </i>
   </energy>
  </scstep>
  <scstep>
   <time name="diag">    0.04    0.04</time>
   <time name="diis">    0.20    0.19</time>
   <time name="orth">    0.00    0.01</time>
   <time name="total">    0.38    0.38</time>
   <energy>
    <i name="e_fr_energy">    -21.01363594 </i>
    <i name="e_wo_entrp">    -20.98749141 </i>
    <i name="e_0_energy">    -21.00056367 </i>
   </energy>
  </scstep>
  <scstep>
   <time name="diag">    0.04    0.04</time>
   <time name="diis">    0.19    0.19</time>
   <time name="orth">    0.00    0.01</time>
   <time name="total">    0.38    0.38</time>
   <energy>
    <i name="e_fr_energy">    -20.99454552 </i>
    <i name="e_wo_entrp">    -20.96832265 </i>
    <i name="e_0_energy">    -20.98143408 </i>
   </energy>
  </scstep>
  <scstep>
   <time name="diag">    0.04    0.04</time>
   <time name="diis">    0.20    0.20</time>
   <time name="orth">    0.00    0.00</time>
   <time name="total">    0.38    0.38</time>
   <energy>
    <i name="e_fr_energy">    -20.99470397 </i>
    <i name="e_wo_entrp">    -20.96846768 </i>
    <i name="e_0_energy">    -20.98158583 </i>
   </energy>
  </scstep>
  <scstep>
   <time name="diag">    0.04    0.04</time>
   <time name="diis">    0.19    0.20</time>
   <time name="orth">    0.01    0.00</time>
   <time name="total">    0.38    0.38</time>
   <energy>
    <i name="e_fr_energy">    -20.99472373 </i>
    <i name="e_wo_entrp">    -20.96848120 </i>
    <i name="e_0_energy">    -20.98160246 </i>
   </energy>
  </scstep>
  <scstep>
   <time name="diag">    0.04    0.04</time>
   <time name="diis">    0.19    0.19</time>
   <time name="orth">    0.00    0.00</time>
   <time name="total">    0.37    0.37</time>
   <energy>
    <i name="e_fr_energy">    -20.99472243 </i>
    <i name="e_wo_entrp">    -20.96847933 </i>
    <i name="e_0_energy">    -20.98160088 </i>
   </energy>
  </scstep>
  <scstep>
   <time name="diag">    0.04    0.04</time>
   <time name="diis">    0.17    0.17</time>
   <time name="orth">    0.00    0.01</time>
   <time name="total">    0.24    0.24</time>
   <energy>
    <i name="alphaZ">     56.21712055 </i>
    <i name="ewald">   -475.08442334 </i>
    <i name="hartreedc">    -25.86105775 </i>
    <i name="XCdc">   -154.21433958 </i>
    <i name="pawpsdc">    406.22979340 </i>
    <i name="pawaedc">   -217.94215674 </i>
    <i name="eentropy">     -0.02624272 </i>
    <i name="bandstr">    -81.26365570 </i>
    <i name="atom">    470.95023928 </i>
    <i name="e_fr_energy">    -20.99472260 </i>
    <i name="e_wo_entrp">    -20.96847988 </i>
    <i name="e_0_energy">    -20.98160124 </i>
   </energy>
  </scstep>
  <structure>
   <crystal>
    <varray name="basis" >
     <v>       5.87784998       0.00000000       0.00000000 </v>
     <v>       0.00000000       5.87784998       0.00000000 </v>
     <v>      -0.00000000       0.00000000       5.87784998 </v>
    </varray>
    <i name="volume">    203.07454611 </i>
    <varray name="rec_basis" >
     <v>       0.17013024      -0.00000000       0.00000000 </v>
     <v>       0.00000000       0.17013024       0.00000000 </v>
     <v>      -0.00000000      -0.00000000       0.17013024 </v>
    </varray>
   </crystal>
   <varray name="positions" >
    <v>       0.75000000       0.75000000       0.75000000 </v>
    <v>       0.50000000      -0.00000000      -0.00000000 </v>
    <v>       0.75000000       0.25000000       0.25000000 </v>
    <v>       0.50000000       0.50000000       0.50000000 </v>
    <v>       0.25000000       0.75000000       0.25000000 </v>
    <v>      -0.00000000      -0.00000000       0.50000000 </v>
    <v>       0.25000000       0.25000000       0.75000000 </v>
    <v>      -0.00000000       0.50000000       0.00000000 </v>
   </varray>
  </structure>
  <varray name="forces" >
   <v>       0.00000000      -0.00000000       0.00000000 </v>
   <v>      -0.00000000       0.00000000       0.00000000 </v>
   <v>      -0.00000000       0.00000000      -0.00000000 </v>
   <v>       0.00000000      -0.00000000      -0.00000000 </v>
   <v>       0.00000000      -0.00000000      -0.00000000 </v>
   <v>      -0.00000000       0.00000000      -0.00000000 </v>
   <v>      -0.00000000       0.00000000       0.00000000 </v>
   <v>       0.00000000      -0.00000000       0.00000000 </v>
  </varray>
  <varray name="stress" >
   <v>       1.64459658      -0.00000000       0.00000000 </v>
   <v>      -0.00000000       1.64459658      -0.00000000 </v>
   <v>      -0.00000000      -0.00000000       1.64459658 </v>
  </varray>
  <energy>
   <i name="e_fr_energy">    -20.99472260 </i>
   <i name="e_wo_entrp">    -20.98160124 </i>
   <i name="e_0_energy">     -0.02624272 </i>
  </energy>
  <time name="totalsc">    3.53    3.55</time>
 </calculation>
 <calculation>
  <scstep>
   <time name="dav">    0.33    0.33</time>
   <time name="total">    0.48    0.49</time>
   <energy>
    <i name="alphaZ">     55.96551099 </i>
    <i name="ewald">   -474.37458880 </i>
    <i name="hartreedc">    -25.82271143 </i>
    <i name="XCdc">   -154.22601974 </i>
    <i name="pawpsdc">    406.22800004 </i>
    <i name="pawaedc">   -217.94035354 </i>
    <i name="eentropy">     -0.02615453 </i>
    <i name="bandstr">    -81.74940156 </i>
    <i name="atom">    470.95023928 </i>
    <i name="e_fr_energy">    -20.99547928 </i>
    <i name="e_wo_entrp">    -20.96932475 </i>
    <i name="e_0_energy">    -20.98240202 </i>
   </energy>
  </scstep>
  <scstep>
   <time name="diag">    0.04    0.04</time>
   <time name="diis">    0.19    0.19</time>
   <time name="orth">    0.00    0.00</time>
   <time name="total">    0.38    0.38</time>
   <energy>
    <i name="e_fr_energy">    -20.99527153 </i>
    <i name="e_wo_entrp">    -20.96911370 </i>
    <i name="e_0_energy">    -20.98219261 </i>
   </energy>
  </scstep>
  <scstep>
   <time name="diag">    0.04    0.04</time>
   <time name="diis">    0.19    0.19</time>
   <time name="orth">    0.00    0.00</time>
   <time name="total">    0.38    0.38</time>
   <energy>
    <i name="e_fr_energy">    -20.99514987 </i>
    <i name="e_wo_entrp">    -20.96898627 </i>
    <i name="e_0_energy">    -20.98206807 </i>
   </energy>
  </scstep>
  <scstep>
   <time name="diag">    0.04    0.04</time>
   <time name="diis">    0.19    0.19</time>
   <time name="orth">    0.00    0.00</time>
   <time name="total">    0.37    0.37</time>
   <energy>
    <i name="e_fr_energy">    -20.99515193 </i>
    <i name="e_wo_entrp">    -20.96898729 </i>
    <i name="e_0_energy">    -20.98206961 </i>
   </energy>
  </scstep>
  <scstep>
   <time name="diag">    0.04    0.04</time>
   <time name="diis">    0.16    0.16</time>
   <time name="orth">    0.00    0.01</time>
   <time name="total">    0.23    0.23</time>
   <energy>
    <i name="alphaZ">     55.96551099 </i>
    <i name="ewald">   -474.37458880 </i>
    <i name="hartreedc">    -25.98649916 </i>
    <i name="XCdc">   -154.25192410 </i>
    <i name="pawpsdc">    405.23447363 </i>
    <i name="pawaedc">   -216.93623924 </i>
    <i name="eentropy">     -0.02616510 </i>
    <i name="bandstr">    -81.56995998 </i>
    <i name="atom">    470.95023928 </i>
    <i name="e_fr_energy">    -20.99515249 </i>
    <i name="e_wo_entrp">    -20.96898739 </i>
    <i name="e_0_energy">    -20.98206994 </i>
   </energy>
  </scstep>
  <structure>
   <crystal>
    <varray name="basis" >
     <v>       5.88664535       0.00000000       0.00000000 </v>
     <v>       0.00000000       5.88664535       0.00000000 </v>
     <v>      -0.00000000       0.00000000       5.88664535 </v>
    </varray>
    <i name="volume">    203.98752799 </i>
    <varray name="rec_basis" >
     <v>       0.16987604      -0.00000000       0.00000000 </v>
     <v>       0.00000000       0.16987604       0.00000000 </v>
     <v>      -0.00000000      -0.00000000       0.16987604 </v>
    </varray>
   </crystal>
   <varray name="positions" >
    <v>       0.75000000       0.75000000       0.75000000 </v>
    <v>       0.50000000      -0.00000000      -0.00000000 </v>
    <v>       0.75000000       0.25000000       0.25000000 </v>
    <v>       0.50000000       0.50000000       0.50000000 </v>
    <v>       0.25000000       0.75000000       0.25000000 </v>
    <v>      -0.00000000      -0.00000000       0.50000000 </v>
    <v>       0.25000000       0.25000000       0.75000000 </v>
    <v>      -0.00000000       0.50000000       0.00000000 </v>
   </varray>
  </structure>
  <varray name="forces" >
   <v>       0.00000000      -0.00000000       0.00000000 </v>
   <v>      -0.00000000      -0.00000000      -0.00000000 </v>
   <v>       0.00000000      -0.00000000       0.00000000 </v>
   <v>      -0.00000000       0.00000000      -0.00000000 </v>
   <v>       0.00000000       0.00000000       0.00000000 </v>
   <v>      -0.00000000      -0.00000000      -0.00000000 </v>
   <v>       0.00000000      -0.00000000       0.00000000 </v>
   <v>      -0.00000000      -0.00000000      -0.00000000 </v>
  </varray>
  <varray name="stress" >
   <v>      -0.06115039       0.00000000      -0.00000000 </v>
   <v>       0.00000000      -0.06115039       0.00000000 </v>
   <v>       0.00000000      -0.00000000      -0.06115039 </v>
  </varray>
  <energy>
   <i name="e_fr_energy">    -20.99515249 </i>
   <i name="e_wo_entrp">    -20.98206994 </i>
   <i name="e_0_energy">     -0.02616510 </i>
  </energy>
  <time name="totalsc">    2.68    2.70</time>
  <eigenvalues>
   <array>
    <dimension dim="1">band</dimension>
    <dimension dim="2">kpoint</dimension>
    <dimension dim="3">spin</dimension>
    <field>eigene</field>
    <field>occ</field>
    <set>
     <set comment="spin 1">
      <set comment="kpoint 1">
       <r>   -8.7293    1.0000 </r>
       <r>   -5.5837    1.0000 </r>
       <r>   -5.5837    1.0000 </r>
       <r>   -5.5837    1.0000 </r>
       <r>   -4.4132    1.0000 </r>
       <r>   -4.4132    1.0000 </r>
       <r>   -4.4132    1.0000 </r>
       <r>   -0.3185    1.0000 </r>
       <r>   -0.3185    1.0000 </r>
       <r>   -0.3185    1.0000 </r>
       <r>    0.0766    1.0000 </r>
       <r>    0.0766    1.0000 </r>
       <r>    0.0766    1.0000 </r>
       <r>    1.9282    0.0000 </r>
       <r>    3.0122    0.0000 </r>
       <r>    3.0122    0.0000 </r>
       <r>    3.2889    0.0000 </r>
       <r>    3.2889    0.0000 </r>
       <r>    3.2889    0.0000 </r>
       <r>    3.8514    0.0000 </r>
      </set>
      <set comment="kpoint 2">
       <r>   -8.5119    1.0000 </r>
       <r>   -6.6004    1.0000 </r>
       <r>   -5.5044    1.0000 </r>
       <r>   -5.5044    1.0000 </r>
       <r>   -4.4092    1.0000 </r>
       <r>   -4.4092    1.0000 </r>
       <r>   -3.1439    1.0000 </r>
       <r>   -0.8750    1.0000 </r>
       <r>   -0.8750    1.0000 </r>
       <r>   -0.1070    1.0000 </r>
       <r>   -0.1070    1.0000 </r>
       <r>   -0.0403    1.0000 </r>
       <r>    0.3100    0.9767 </r>
       <r>    0.7313    0.0000 </r>
       <r>    2.2428    0.0000 </r>
       <r>    2.3567    0.0000 </r>
       <r>    3.3879    0.0000 </r>
       <r>    4.0075    0.0000 </r>
       <r>    4.0075    0.0000 </r>
       <r>    4.3143    0.0000 </r>
      </set>
      <set comment="kpoint 3">
       <r>   -8.0798    1.0000 </r>
       <r>   -7.4389    1.0000 </r>
       <r>   -5.4137    1.0000 </r>
       <r>   -5.4137    1.0000 </r>
       <r>   -4.4173    1.0000 </r>
       <r>   -4.4173    1.0000 </r>
       <r>   -1.8304    1.0000 </r>
       <r>   -1.1939    1.0000 </r>
       <r>   -1.1939    1.0000 </r>
       <r>   -0.5312    1.0000 </r>
       <r>   -0.4210    1.0000 </r>
       <r>   -0.4210    1.0000 </r>
       <r>    0.5179    0.1707 </r>
       <r>    0.7683    0.0000 </r>
       <r>    1.3445    0.0000 </r>
       <r>    1.4301    0.0000 </r>
       <r>    3.6890    0.0000 </r>
       <r>    4.1981    0.0000 </r>
       <r>    5.0913    0.0000 </r>
       <r>    5.4878    0.0000 </r>
      </set>
      <set comment="kpoint 4">
       <r>   -8.2984    1.0000 </r>
       <r>   -6.4481    1.0000 </r>
       <r>   -6.4481    1.0000 </r>
       <r>   -5.6088    1.0000 </r>
       <r>   -4.3142    1.0000 </r>
       <r>   -3.3507    1.0000 </r>
       <r>   -3.3507    1.0000 </r>
       <r>   -1.3197    1.0000 </r>
       <r>   -0.5708    1.0000 </r>
       <r>   -0.5708    1.0000 </r>
       <r>   -0.2782    1.0000 </r>
       <r>    0.2518    0.9975 </r>
       <r>    0.2518    0.9975 </r>
       <r>    0.4738    0.3716 </r>
       <r>    1.5220    0.0000 </r>
       <r>    2.7394    0.0000 </r>
       <r>    3.7013    0.0000 </r>
       <r>    4.2119    0.0000 </r>
       <r>    4.2119    0.0000 </r>
       <r>    4.6044    0.0000 </r>
      </set>
      <set comment="kpoint 5">
       <r>   -7.8753    1.0000 </r>
       <r>   -7.2523    1.0000 </r>
       <r>   -6.1750    1.0000 </r>
       <r>   -5.8562    1.0000 </r>
       <r>   -4.0704    1.0000 </r>
       <r>   -3.7068    1.0000 </r>
       <r>   -2.3214    1.0000 </r>
       <r>   -1.3578    1.0000 </r>
       <r>   -1.3142    1.0000 </r>
       <r>   -1.0567    1.0000 </r>
       <r>   -0.0284    1.0000 </r>
       <r>    0.2542    0.9973 </r>
       <r>    0.4594    0.4510 </r>
       <r>    0.6862    0.0004 </r>
       <r>    0.9859    0.0000 </r>
       <r>    1.9771    0.0000 </r>
       <r>    4.5673    0.0000 </r>
       <r>    4.6015    0.0000 </r>
       <r>    5.0113    0.0000 </r>
       <r>    5.6748    0.0000 </r>
      </set>
      <set comment="kpoint 6">
       <r>   -7.4739    1.0000 </r>
       <r>   -6.8942    1.0000 </r>
       <r>   -6.8942    1.0000 </r>
       <r>   -6.4026    1.0000 </r>
       <r>   -3.5764    1.0000 </r>
       <r>   -2.9706    1.0000 </r>
       <r>   -2.9706    1.0000 </r>
       <r>   -2.1766    1.0000 </r>
       <r>   -1.1603    1.0000 </r>
       <r>   -0.6761    1.0000 </r>
       <r>   -0.6761    1.0000 </r>
       <r>   -0.0715    1.0000 </r>
       <r>    1.1977    0.0000 </r>
       <r>    1.2604    0.0000 </r>
       <r>    1.2604    0.0000 </r>
       <r>    2.0634    0.0000 </r>
       <r>    4.3731    0.0000 </r>
       <r>    4.8777    0.0000 </r>
       <r>    5.2469    0.0000 </r>
       <r>    5.2469    0.0000 </r>
      </set>
      <set comment="kpoint 7">
       <r>   -8.0904    1.0000 </r>
       <r>   -6.3527    1.0000 </r>
       <r>   -6.3527    1.0000 </r>
       <r>   -6.3527    1.0000 </r>
       <r>   -3.6547    1.0000 </r>
       <r>   -3.6547    1.0000 </r>
       <r>   -3.6547    1.0000 </r>
       <r>   -1.2230    1.0000 </r>
       <r>   -0.6996    1.0000 </r>
       <r>   -0.6996    1.0000 </r>
       <r>   -0.6996    1.0000 </r>
       <r>    0.6827    0.0005 </r>
       <r>    0.6827    0.0005 </r>
       <r>    0.6827    0.0005 </r>
       <r>    2.2631    0.0000 </r>
       <r>    2.2631    0.0000 </r>
       <r>    3.7953    0.0000 </r>
       <r>    3.9636    0.0000 </r>
       <r>    3.9636    0.0000 </r>
       <r>    3.9636    0.0000 </r>
      </set>
      <set comment="kpoint 8">
       <r>   -7.6813    1.0000 </r>
       <r>   -7.0883    1.0000 </r>
       <r>   -6.2413    1.0000 </r>
       <r>   -6.2413    1.0000 </r>
       <r>   -3.9531    1.0000 </r>
       <r>   -3.9531    1.0000 </r>
       <r>   -2.9427    1.0000 </r>
       <r>   -2.1444    1.0000 </r>
       <r>   -0.6635    1.0000 </r>
       <r>   -0.6635    1.0000 </r>
       <r>    0.3502    0.9222 </r>
       <r>    0.7517    0.0000 </r>
       <r>    0.7517    0.0000 </r>
       <r>    1.0851    0.0000 </r>
       <r>    1.5501    0.0000 </r>
       <r>    1.6418    0.0000 </r>
       <r>    4.3489    0.0000 </r>
       <r>    4.4019    0.0000 </r>
       <r>    4.7624    0.0000 </r>
       <r>    4.7624    0.0000 </r>
      </set>
      <set comment="kpoint 9">
       <r>   -7.3076    1.0000 </r>
       <r>   -6.7945    1.0000 </r>
       <r>   -6.7945    1.0000 </r>
       <r>   -6.4627    1.0000 </r>
       <r>   -3.9574    1.0000 </r>
       <r>   -3.5765    1.0000 </r>
       <r>   -3.5765    1.0000 </r>
       <r>   -2.9544    1.0000 </r>
       <r>   -0.2054    1.0000 </r>
       <r>    0.2180    0.9995 </r>
       <r>    0.2180    0.9995 </r>
       <r>    0.9773    0.0000 </r>
       <r>    1.3303    0.0000 </r>
       <r>    1.3652    0.0000 </r>
       <r>    1.3652    0.0000 </r>
       <r>    1.9831    0.0000 </r>
       <r>    4.1389    0.0000 </r>
       <r>    4.4575    0.0000 </r>
       <r>    4.7278    0.0000 </r>
       <r>    4.7278    0.0000 </r>
      </set>
      <set comment="kpoint 10">
       <r>   -7.0104    1.0000 </r>
       <r>   -6.6779    1.0000 </r>
       <r>   -6.6779    1.0000 </r>
       <r>   -6.6779    1.0000 </r>
       <r>   -4.0307    1.0000 </r>
       <r>   -4.0307    1.0000 </r>
       <r>   -4.0307    1.0000 </r>
       <r>   -3.6515    1.0000 </r>
       <r>    1.0210    0.0000 </r>
       <r>    1.0210    0.0000 </r>
       <r>    1.0210    0.0000 </r>
       <r>    1.5577    0.0000 </r>
       <r>    1.5577    0.0000 </r>
       <r>    1.5577    0.0000 </r>
       <r>    1.8039    0.0000 </r>
       <r>    1.8039    0.0000 </r>
       <r>    3.3902    0.0000 </r>
       <r>    4.0343    0.0000 </r>
       <r>    4.0343    0.0000 </r>
       <r>    4.0343    0.0000 </r>
      </set>
     </set>
    </set>
   </array>
  </eigenvalues>
  <separator name="orbital magnetization" >
   <v name="MAGDIPOLOUT">      0.00000000      0.00000000      0.00000000</v>
  </separator>
  <dos>
   <i name="efermi">      0.45066348 </i>
   <total>
    <array>
     <dimension dim="1">gridpoints</dimension>
     <dimension dim="2">spin</dimension>
     <field>energy</field>
     <field>total</field>
     <field>integrated</field>
     <set>
      <set comment="spin 1">
       <r>    -9.7293     0.0000     0.0000 </r>
       <r>    -9.6746     0.0000     0.0000 </r>
       <r>    -9.6199     0.0000     0.0000 </r>
       <r>    -9.5653     0.0000     0.0000 </r>
       <r>    -9.5106     0.0000     0.0000 </r>
       <r>    -9.4559     0.0000     0.0000 </r>
       <r>    -9.4012     0.0000     0.0000 </r>
       <r>    -9.3465     0.0000     0.0000 </r>
       <r>    -9.2918     0.0000     0.0000 </r>
       <r>    -9.2372     0.0000     0.0000 </r>
       <r>    -9.1825     0.0000     0.0000 </r>
       <r>    -9.1278     0.0000     0.0000 </r>
       <r>    -9.0731     0.0000     0.0000 </r>
       <r>    -9.0184     0.0000     0.0000 </r>
       <r>    -8.9638     0.0006     0.0000 </r>
       <r>    -8.9091     0.0068     0.0004 </r>
       <r>    -8.8544     0.0446     0.0028 </r>
       <r>    -8.7997     0.1643     0.0118 </r>
       <r>    -8.7450     0.3436     0.0306 </r>
       <r>    -8.6904     0.4242     0.0538 </r>
       <r>    -8.6357     0.4076     0.0761 </r>
       <r>    -8.5810     0.6064     0.1093 </r>
       <r>    -8.5263     1.0604     0.1672 </r>
       <r>    -8.4716     1.2329     0.2347 </r>
       <r>    -8.4170     0.9530     0.2868 </r>
       <r>    -8.3623     0.8487     0.3332 </r>
       <r>    -8.3076     1.1429     0.3957 </r>
       <r>    -8.2529     1.2327     0.4631 </r>
       <r>    -8.1982     0.9727     0.5163 </r>
       <r>    -8.1436     1.0365     0.5729 </r>
       <r>    -8.0889     1.5224     0.6562 </r>
       <r>    -8.0342     1.6574     0.7468 </r>
       <r>    -7.9795     1.4187     0.8244 </r>
       <r>    -7.9248     1.7212     0.9185 </r>
       <r>    -7.8702     2.4120     1.0504 </r>
       <r>    -7.8155     2.3214     1.1773 </r>
       <r>    -7.7608     1.6001     1.2648 </r>
       <r>    -7.7061     1.3063     1.3362 </r>
       <r>    -7.6514     1.3117     1.4080 </r>
       <r>    -7.5968     1.0920     1.4677 </r>
       <r>    -7.5421     1.1298     1.5295 </r>
       <r>    -7.4874     1.8633     1.6313 </r>
       <r>    -7.4327     2.5589     1.7713 </r>
       <r>    -7.3780     2.6376     1.9155 </r>
       <r>    -7.3234     2.8719     2.0725 </r>
       <r>    -7.2687     3.5022     2.2640 </r>
       <r>    -7.2140     3.3945     2.4496 </r>
       <r>    -7.1593     2.4399     2.5831 </r>
       <r>    -7.1046     1.8129     2.6822 </r>
       <r>    -7.0499     1.7171     2.7761 </r>
       <r>    -6.9953     1.7560     2.8721 </r>
       <r>    -6.9406     2.2509     2.9952 </r>
       <r>    -6.8859     3.2418     3.1724 </r>
       <r>    -6.8312     3.9350     3.3876 </r>
       <r>    -6.7765     3.8536     3.5983 </r>
       <r>    -6.7219     3.2468     3.7759 </r>
       <r>    -6.6672     2.7324     3.9253 </r>
       <r>    -6.6125     2.5183     4.0630 </r>
       <r>    -6.5578     2.5354     4.2016 </r>
       <r>    -6.5031     3.3186     4.3831 </r>
       <r>    -6.4485     4.8195     4.6466 </r>
       <r>    -6.3938     5.4666     4.9455 </r>
       <r>    -6.3391     4.7157     5.2034 </r>
       <r>    -6.2844     4.0941     5.4272 </r>
       <r>    -6.2297     4.4506     5.6706 </r>
       <r>    -6.1751     4.5762     5.9208 </r>
       <r>    -6.1204     3.3690     6.1050 </r>
       <r>    -6.0657     1.6062     6.1929 </r>
       <r>    -6.0110     0.5652     6.2238 </r>
       <r>    -5.9563     0.5993     6.2566 </r>
       <r>    -5.9017     1.4846     6.3377 </r>
       <r>    -5.8470     2.3731     6.4675 </r>
       <r>    -5.7923     2.1789     6.5866 </r>
       <r>    -5.7376     1.2862     6.6570 </r>
       <r>    -5.6829     1.0920     6.7167 </r>
       <r>    -5.6283     2.0817     6.8305 </r>
       <r>    -5.5736     3.5059     7.0222 </r>
       <r>    -5.5189     4.4442     7.2652 </r>
       <r>    -5.4642     4.6571     7.5199 </r>
       <r>    -5.4095     4.1388     7.7462 </r>
       <r>    -5.3549     2.8508     7.9021 </r>
       <r>    -5.3002     1.3342     7.9750 </r>
       <r>    -5.2455     0.3850     7.9961 </r>
       <r>    -5.1908     0.0651     7.9996 </r>
       <r>    -5.1361     0.0063     8.0000 </r>
       <r>    -5.0815     0.0003     8.0000 </r>
       <r>    -5.0268     0.0000     8.0000 </r>
       <r>    -4.9721     0.0000     8.0000 </r>
       <r>    -4.9174     0.0000     8.0000 </r>
       <r>    -4.8627     0.0000     8.0000 </r>
       <r>    -4.8081     0.0000     8.0000 </r>
       <r>    -4.7534     0.0000     8.0000 </r>
       <r>    -4.6987     0.0005     8.0000 </r>
       <r>    -4.6440     0.0108     8.0006 </r>
       <r>    -4.5893     0.1198     8.0072 </r>
       <r>    -4.5346     0.7507     8.0482 </r>
       <r>    -4.4800     2.6729     8.1944 </r>
       <r>    -4.4253     5.4699     8.4935 </r>
       <r>    -4.3706     6.6014     8.8544 </r>
       <r>    -4.3159     4.9682     9.1261 </r>
       <r>    -4.2612     2.5743     9.2669 </r>
       <r>    -4.2066     1.1681     9.3307 </r>
       <r>    -4.1519     1.2220     9.3976 </r>
       <r>    -4.0972     2.6570     9.5428 </r>
       <r>    -4.0425     4.5435     9.7913 </r>
       <r>    -3.9878     5.6125    10.0982 </r>
       <r>    -3.9332     5.2015    10.3826 </r>
       <r>    -3.8785     3.4496    10.5712 </r>
       <r>    -3.8238     1.7875    10.6690 </r>
       <r>    -3.7691     1.7581    10.7651 </r>
       <r>    -3.7144     3.2802    10.9445 </r>
       <r>    -3.6598     4.9742    11.2165 </r>
       <r>    -3.6051     5.7314    11.5299 </r>
       <r>    -3.5504     5.1280    11.8103 </r>
       <r>    -3.4957     3.3616    11.9941 </r>
       <r>    -3.4410     1.9359    12.0999 </r>
       <r>    -3.3864     1.9810    12.2083 </r>
       <r>    -3.3317     2.4863    12.3442 </r>
       <r>    -3.2770     2.1022    12.4592 </r>
       <r>    -3.2223     1.3496    12.5330 </r>
       <r>    -3.1676     1.2254    12.6000 </r>
       <r>    -3.1130     1.4901    12.6814 </r>
       <r>    -3.0583     1.9947    12.7905 </r>
       <r>    -3.0036     3.3765    12.9751 </r>
       <r>    -2.9489     4.7909    13.2371 </r>
       <r>    -2.8942     4.2343    13.4686 </r>
       <r>    -2.8396     2.1786    13.5878 </r>
       <r>    -2.7849     0.6449    13.6230 </r>
       <r>    -2.7302     0.1094    13.6290 </r>
       <r>    -2.6755     0.0106    13.6296 </r>
       <r>    -2.6208     0.0007    13.6296 </r>
       <r>    -2.5662     0.0021    13.6297 </r>
       <r>    -2.5115     0.0270    13.6312 </r>
       <r>    -2.4568     0.1967    13.6420 </r>
       <r>    -2.4021     0.8087    13.6862 </r>
       <r>    -2.3474     1.9026    13.7902 </r>
       <r>    -2.2927     2.6828    13.9369 </r>
       <r>    -2.2381     2.6962    14.0844 </r>
       <r>    -2.1834     2.6619    14.2299 </r>
       <r>    -2.1287     2.5635    14.3701 </r>
       <r>    -2.0740     1.7652    14.4666 </r>
       <r>    -2.0193     0.7548    14.5079 </r>
       <r>    -1.9647     0.2836    14.5234 </r>
       <r>    -1.9100     0.4379    14.5473 </r>
       <r>    -1.8553     0.9456    14.5990 </r>
       <r>    -1.8006     1.2226    14.6659 </r>
       <r>    -1.7459     0.8968    14.7149 </r>
       <r>    -1.6913     0.3723    14.7353 </r>
       <r>    -1.6366     0.0877    14.7401 </r>
       <r>    -1.5819     0.0184    14.7411 </r>
       <r>    -1.5272     0.0783    14.7454 </r>
       <r>    -1.4725     0.5057    14.7730 </r>
       <r>    -1.4179     1.9436    14.8793 </r>
       <r>    -1.3632     4.4721    15.1238 </r>
       <r>    -1.3085     6.4177    15.4748 </r>
       <r>    -1.2538     6.4726    15.8287 </r>
       <r>    -1.1991     5.7678    16.1441 </r>
       <r>    -1.1445     5.1525    16.4258 </r>
       <r>    -1.0898     4.3927    16.6660 </r>
       <r>    -1.0351     3.5317    16.8591 </r>
       <r>    -0.9804     2.6336    17.0031 </r>
       <r>    -0.9257     2.2856    17.1281 </r>
       <r>    -0.8711     2.6126    17.2710 </r>
       <r>    -0.8164     2.7120    17.4193 </r>
       <r>    -0.7617     3.0857    17.5880 </r>
       <r>    -0.7070     4.9674    17.8596 </r>
       <r>    -0.6523     7.0189    18.2434 </r>
       <r>    -0.5977     7.1864    18.6364 </r>
       <r>    -0.5430     5.9632    18.9624 </r>
       <r>    -0.4883     4.6691    19.2177 </r>
       <r>    -0.4336     3.9559    19.4341 </r>
       <r>    -0.3789     3.7376    19.6384 </r>
       <r>    -0.3243     3.6341    19.8371 </r>
       <r>    -0.2696     3.5719    20.0325 </r>
       <r>    -0.2149     3.5388    20.2260 </r>
       <r>    -0.1602     4.0341    20.4466 </r>
       <r>    -0.1055     5.5279    20.7488 </r>
       <r>    -0.0509     6.8971    21.1260 </r>
       <r>     0.0038     6.4134    21.4766 </r>
       <r>     0.0585     4.4891    21.7221 </r>
       <r>     0.1132     3.1937    21.8967 </r>
       <r>     0.1679     4.0178    22.1164 </r>
       <r>     0.2226     6.7162    22.4837 </r>
       <r>     0.2772     8.5659    22.9521 </r>
       <r>     0.3319     7.5746    23.3663 </r>
       <r>     0.3866     5.6268    23.6739 </r>
       <r>     0.4413     5.0676    23.9510 </r>
       <r>     0.4960     5.1605    24.2332 </r>
       <r>     0.5506     4.2837    24.4674 </r>
       <r>     0.6053     3.4958    24.6586 </r>
       <r>     0.6600     4.7599    24.9189 </r>
       <r>     0.7147     7.1049    25.3074 </r>
       <r>     0.7694     7.5030    25.7176 </r>
       <r>     0.8240     5.2313    26.0037 </r>
       <r>     0.8787     2.9493    26.1649 </r>
       <r>     0.9334     3.0485    26.3316 </r>
       <r>     0.9881     4.7318    26.5904 </r>
       <r>     1.0428     5.3751    26.8843 </r>
       <r>     1.0974     4.2971    27.1193 </r>
       <r>     1.1521     3.2436    27.2966 </r>
       <r>     1.2068     3.5536    27.4909 </r>
       <r>     1.2615     4.9422    27.7612 </r>
       <r>     1.3162     6.3917    28.1107 </r>
       <r>     1.3708     6.8913    28.4875 </r>
       <r>     1.4255     5.9957    28.8153 </r>
       <r>     1.4802     4.8529    29.0807 </r>
       <r>     1.5349     4.6240    29.3335 </r>
       <r>     1.5896     4.4621    29.5775 </r>
       <r>     1.6442     3.4296    29.7651 </r>
       <r>     1.6989     2.0868    29.8792 </r>
       <r>     1.7536     1.2662    29.9484 </r>
       <r>     1.8083     1.1296    30.0102 </r>
       <r>     1.8630     1.4835    30.0913 </r>
       <r>     1.9176     2.5637    30.2315 </r>
       <r>     1.9723     4.1250    30.4570 </r>
       <r>     2.0270     4.6311    30.7103 </r>
       <r>     2.0817     3.5014    30.9017 </r>
       <r>     2.1364     2.0698    31.0149 </r>
       <r>     2.1910     1.6429    31.1047 </r>
       <r>     2.2457     2.1682    31.2233 </r>
       <r>     2.3004     2.5779    31.3643 </r>
       <r>     2.3551     2.2951    31.4897 </r>
       <r>     2.4098     1.5499    31.5745 </r>
       <r>     2.4645     0.7401    31.6150 </r>
       <r>     2.5191     0.2275    31.6274 </r>
       <r>     2.5738     0.0754    31.6315 </r>
       <r>     2.6285     0.2025    31.6426 </r>
       <r>     2.6832     0.6298    31.6770 </r>
       <r>     2.7379     1.1301    31.7388 </r>
       <r>     2.7925     1.1505    31.8017 </r>
       <r>     2.8472     0.6844    31.8392 </r>
       <r>     2.9019     0.3490    31.8582 </r>
       <r>     2.9566     0.4628    31.8836 </r>
       <r>     3.0113     0.7598    31.9251 </r>
       <r>     3.0659     0.7667    31.9670 </r>
       <r>     3.1206     0.4689    31.9927 </r>
       <r>     3.1753     0.3325    32.0108 </r>
       <r>     3.2300     0.6895    32.0485 </r>
       <r>     3.2847     1.4327    32.1269 </r>
       <r>     3.3393     2.0977    32.2416 </r>
       <r>     3.3940     2.2465    32.3644 </r>
       <r>     3.4487     1.7033    32.4576 </r>
       <r>     3.5034     0.8556    32.5044 </r>
       <r>     3.5581     0.4319    32.5280 </r>
       <r>     3.6127     0.8286    32.5733 </r>
       <r>     3.6674     1.8815    32.6762 </r>
       <r>     3.7221     2.6346    32.8202 </r>
       <r>     3.7768     2.3510    32.9488 </r>
       <r>     3.8315     1.6920    33.0413 </r>
       <r>     3.8861     1.6710    33.1327 </r>
       <r>     3.9408     2.7511    33.2831 </r>
       <r>     3.9955     4.3690    33.5220 </r>
       <r>     4.0502     4.9906    33.7949 </r>
       <r>     4.1049     4.5242    34.0423 </r>
       <r>     4.1595     4.5661    34.2919 </r>
       <r>     4.2142     5.1768    34.5750 </r>
       <r>     4.2689     5.2586    34.8626 </r>
       <r>     4.3236     5.2013    35.1470 </r>
       <r>     4.3783     5.4115    35.4429 </r>
       <r>     4.4329     5.1136    35.7225 </r>
       <r>     4.4876     4.6073    35.9744 </r>
       <r>     4.5423     5.2482    36.2614 </r>
       <r>     4.5970     6.5527    36.6197 </r>
       <r>     4.6517     6.6861    36.9853 </r>
       <r>     4.7063     6.1001    37.3188 </r>
       <r>     4.7610     5.7596    37.6338 </r>
       <r>     4.8157     4.7744    37.8948 </r>
       <r>     4.8704     3.2856    38.0745 </r>
       <r>     4.9251     2.5139    38.2120 </r>
       <r>     4.9798     2.7715    38.3635 </r>
       <r>     5.0344     3.3332    38.5458 </r>
       <r>     5.0891     3.1887    38.7201 </r>
       <r>     5.1438     2.4965    38.8566 </r>
       <r>     5.1985     2.3003    38.9824 </r>
       <r>     5.2532     2.5964    39.1244 </r>
       <r>     5.3078     2.2600    39.2480 </r>
       <r>     5.3625     1.3023    39.3192 </r>
       <r>     5.4172     0.8418    39.3652 </r>
       <r>     5.4719     1.0987    39.4253 </r>
       <r>     5.5266     1.3432    39.4987 </r>
       <r>     5.5812     1.4149    39.5761 </r>
       <r>     5.6359     1.9158    39.6809 </r>
       <r>     5.6906     2.4804    39.8165 </r>
       <r>     5.7453     2.0581    39.9290 </r>
       <r>     5.8000     0.9856    39.9829 </r>
       <r>     5.8546     0.2676    39.9976 </r>
       <r>     5.9093     0.0410    39.9998 </r>
       <r>     5.9640     0.0035    40.0000 </r>
       <r>     6.0187     0.0002    40.0000 </r>
       <r>     6.0734     0.0000    40.0000 </r>
       <r>     6.1280     0.0000    40.0000 </r>
       <r>     6.1827     0.0000    40.0000 </r>
       <r>     6.2374     0.0000    40.0000 </r>
       <r>     6.2921     0.0000    40.0000 </r>
       <r>     6.3468     0.0000    40.0000 </r>
       <r>     6.4014     0.0000    40.0000 </r>
       <r>     6.4561     0.0000    40.0000 </r>
       <r>     6.5108     0.0000    40.0000 </r>
       <r>     6.5655     0.0000    40.0000 </r>
       <r>     6.6202     0.0000    40.0000 </r>
       <r>     6.6748     0.0000    40.0000 </r>
      </set>
     </set>
    </array>
   </total>
  </dos>
 </calculation>
 <structure name="finalpos" >
  <crystal>
   <varray name="basis" >
    <v>       5.88664535       0.00000000       0.00000000 </v>
    <v>       0.00000000       5.88664535       0.00000000 </v>
    <v>      -0.00000000       0.00000000       5.88664535 </v>
   </varray>
   <i name="volume">    203.98752799 </i>
   <varray name="rec_basis" >
    <v>       0.16987604      -0.00000000       0.00000000 </v>
    <v>       0.00000000       0.16987604       0.00000000 </v>
    <v>      -0.00000000      -0.00000000       0.16987604 </v>
   </varray>
  </crystal>
  <varray name="positions" >
   <v>       0.75000000       0.75000000       0.75000000 </v>
   <v>       0.50000000      -0.00000000      -0.00000000 </v>
   <v>       0.75000000       0.25000000       0.25000000 </v>
   <v>       0.50000000       0.50000000       0.50000000 </v>
   <v>       0.25000000       0.75000000       0.25000000 </v>
   <v>      -0.00000000      -0.00000000       0.50000000 </v>
   <v>       0.25000000       0.25000000       0.75000000 </v>
   <v>      -0.00000000       0.50000000       0.00000000 </v>
  </varray>
  <varray name="selective"  type="logical" >
   <v type="logical" >  T  T  T </v>
   <v type="logical" >  T  T  T </v>
   <v type="logical" >  T  T  T </v>
   <v type="logical" >  T  T  T </v>
   <v type="logical" >  T  T  T </v>
   <v type="logical" >  T  T  T </v>
   <v type="logical" >  T  T  T </v>
   <v type="logical" >  T  T  T </v>
  </varray>
  <nose>
   <v>      -3.00000000       0.00000000       0.00010000       0.00010000 </v>
  </nose>
 </structure>
</modeling>
