   8   8   0   0
  0.2392351E+02  0.5762863E-09  0.5762863E-09  0.5762863E-09  0.5000000E-15
  1.000000000000000E-004
  CAR 
 unknown system                          
      8.20470511    -10.76943760  301      0.73467935      1.00000000
    -10.769  0.0000E+00  0.0000E+00
    -10.706  0.0000E+00  0.0000E+00
    -10.643  0.0000E+00  0.0000E+00
    -10.580  0.0000E+00  0.0000E+00
    -10.516  0.0000E+00  0.0000E+00
    -10.453  0.0000E+00  0.0000E+00
    -10.390  0.0000E+00  0.0000E+00
    -10.327  0.0000E+00  0.0000E+00
    -10.263  0.0000E+00  0.0000E+00
    -10.200  0.0000E+00  0.0000E+00
    -10.137  0.0000E+00  0.0000E+00
    -10.074  0.0000E+00  0.0000E+00
    -10.010  0.0000E+00  0.0000E+00
     -9.947  0.6501E-16  0.4112E-17
     -9.884  0.1820E-14  0.1192E-15
     -9.821  0.5994E-13  0.3910E-14
     -9.757  0.1588E-11  0.1044E-12
     -9.694  0.3454E-10  0.2289E-11
     -9.631  0.6165E-09  0.4128E-10
     -9.568  0.9029E-08  0.6123E-09
     -9.504  0.1085E-06  0.7476E-08
     -9.441  0.1071E-05  0.7521E-07
     -9.378  0.8675E-05  0.6239E-06
     -9.315  0.5771E-04  0.4274E-05
     -9.252  0.3154E-03  0.2422E-04
     -9.188  0.1417E-02  0.1139E-03
     -9.125  0.5244E-02  0.4456E-03
     -9.062  0.1602E-01  0.1459E-02
     -8.999  0.4062E-01  0.4028E-02
     -8.935  0.8639E-01  0.9492E-02
     -8.872  0.1569E+00  0.1942E-01
     -8.809  0.2506E+00  0.3526E-01
     -8.746  0.3645E+00  0.5832E-01
     -8.682  0.4975E+00  0.8978E-01
     -8.619  0.6422E+00  0.1304E+00
     -8.556  0.7775E+00  0.1796E+00
     -8.493  0.8792E+00  0.2352E+00
     -8.429  0.9417E+00  0.2947E+00
     -8.366  0.9816E+00  0.3568E+00
     -8.303  0.1020E+01  0.4213E+00
     -8.240  0.1073E+01  0.4892E+00
     -8.176  0.1151E+01  0.5620E+00
     -8.113  0.1259E+01  0.6417E+00
     -8.050  0.1392E+01  0.7297E+00
     -7.987  0.1533E+01  0.8267E+00
     -7.923  0.1658E+01  0.9316E+00
     -7.860  0.1724E+01  0.1041E+01
     -7.797  0.1694E+01  0.1148E+01
     -7.734  0.1580E+01  0.1248E+01
     -7.670  0.1450E+01  0.1339E+01
     -7.607  0.1390E+01  0.1427E+01
     -7.544  0.1461E+01  0.1520E+01
     -7.481  0.1668E+01  0.1625E+01
     -7.417  0.1966E+01  0.1750E+01
     -7.354  0.2277E+01  0.1894E+01
     -7.291  0.2521E+01  0.2053E+01
     -7.228  0.2626E+01  0.2219E+01
     -7.164  0.2562E+01  0.2381E+01
     -7.101  0.2368E+01  0.2531E+01
     -7.038  0.2164E+01  0.2668E+01
     -6.975  0.2083E+01  0.2800E+01
     -6.911  0.2194E+01  0.2938E+01
     -6.848  0.2457E+01  0.3094E+01
     -6.785  0.2750E+01  0.3268E+01
     -6.722  0.2947E+01  0.3454E+01
     -6.658  0.2997E+01  0.3644E+01
     -6.595  0.2959E+01  0.3831E+01
     -6.532  0.2958E+01  0.4018E+01
     -6.469  0.3102E+01  0.4214E+01
     -6.405  0.3402E+01  0.4429E+01
     -6.342  0.3756E+01  0.4667E+01
     -6.279  0.4018E+01  0.4921E+01
     -6.216  0.4098E+01  0.5180E+01
     -6.152  0.3984E+01  0.5432E+01
     -6.089  0.3685E+01  0.5665E+01
     -6.026  0.3192E+01  0.5867E+01
     -5.963  0.2559E+01  0.6029E+01
     -5.899  0.1948E+01  0.6152E+01
     -5.836  0.1547E+01  0.6250E+01
     -5.773  0.1428E+01  0.6340E+01
     -5.710  0.1506E+01  0.6435E+01
     -5.646  0.1653E+01  0.6540E+01
     -5.583  0.1835E+01  0.6656E+01
     -5.520  0.2115E+01  0.6790E+01
     -5.457  0.2522E+01  0.6949E+01
     -5.393  0.2954E+01  0.7136E+01
     -5.330  0.3212E+01  0.7339E+01
     -5.267  0.3135E+01  0.7537E+01
     -5.204  0.2699E+01  0.7708E+01
     -5.140  0.2027E+01  0.7836E+01
     -5.077  0.1316E+01  0.7920E+01
     -5.014  0.7305E+00  0.7966E+01
     -4.951  0.3438E+00  0.7988E+01
     -4.887  0.1361E+00  0.7996E+01
     -4.824  0.4503E-01  0.7999E+01
     -4.761  0.1268E-01  0.8000E+01
     -4.698  0.4708E-02  0.8000E+01
     -4.634  0.1003E-01  0.8001E+01
     -4.571  0.3938E-01  0.8003E+01
     -4.508  0.1338E+00  0.8012E+01
     -4.445  0.3749E+00  0.8035E+01
     -4.381  0.8667E+00  0.8090E+01
     -4.318  0.1655E+01  0.8195E+01
     -4.255  0.2622E+01  0.8361E+01
     -4.192  0.3473E+01  0.8580E+01
     -4.128  0.3917E+01  0.8828E+01
     -4.065  0.3915E+01  0.9076E+01
     -4.002  0.3726E+01  0.9311E+01
     -3.939  0.3663E+01  0.9543E+01
     -3.875  0.3788E+01  0.9783E+01
     -3.812  0.3881E+01  0.1003E+02
     -3.749  0.3705E+01  0.1026E+02
     -3.686  0.3288E+01  0.1047E+02
     -3.623  0.2931E+01  0.1066E+02
     -3.559  0.2940E+01  0.1084E+02
     -3.496  0.3329E+01  0.1105E+02
     -3.433  0.3779E+01  0.1129E+02
     -3.370  0.3893E+01  0.1154E+02
     -3.306  0.3520E+01  0.1176E+02
     -3.243  0.2855E+01  0.1194E+02
     -3.180  0.2238E+01  0.1208E+02
     -3.117  0.1879E+01  0.1220E+02
     -3.053  0.1769E+01  0.1231E+02
     -2.990  0.1810E+01  0.1243E+02
     -2.927  0.1970E+01  0.1255E+02
     -2.864  0.2277E+01  0.1270E+02
     -2.800  0.2678E+01  0.1287E+02
     -2.737  0.2978E+01  0.1305E+02
     -2.674  0.2942E+01  0.1324E+02
     -2.611  0.2491E+01  0.1340E+02
     -2.547  0.1777E+01  0.1351E+02
     -2.484  0.1059E+01  0.1358E+02
     -2.421  0.5304E+00  0.1361E+02
     -2.358  0.2424E+00  0.1363E+02
     -2.294  0.1628E+00  0.1364E+02
     -2.231  0.2600E+00  0.1365E+02
     -2.168  0.5347E+00  0.1369E+02
     -2.105  0.9828E+00  0.1375E+02
     -2.041  0.1532E+01  0.1385E+02
     -1.978  0.2022E+01  0.1397E+02
     -1.915  0.2268E+01  0.1412E+02
     -1.852  0.2167E+01  0.1425E+02
     -1.788  0.1771E+01  0.1437E+02
     -1.725  0.1261E+01  0.1445E+02
     -1.662  0.8398E+00  0.1450E+02
     -1.599  0.6326E+00  0.1454E+02
     -1.535  0.6559E+00  0.1458E+02
     -1.472  0.8585E+00  0.1463E+02
     -1.409  0.1191E+01  0.1471E+02
     -1.346  0.1642E+01  0.1481E+02
     -1.282  0.2211E+01  0.1495E+02
     -1.219  0.2864E+01  0.1513E+02
     -1.156  0.3538E+01  0.1536E+02
     -1.093  0.4158E+01  0.1562E+02
     -1.029  0.4636E+01  0.1591E+02
     -0.966  0.4856E+01  0.1622E+02
     -0.903  0.4725E+01  0.1652E+02
     -0.840  0.4274E+01  0.1679E+02
     -0.776  0.3687E+01  0.1702E+02
     -0.713  0.3213E+01  0.1723E+02
     -0.650  0.3064E+01  0.1742E+02
     -0.587  0.3331E+01  0.1763E+02
     -0.523  0.3922E+01  0.1788E+02
     -0.460  0.4556E+01  0.1817E+02
     -0.397  0.4908E+01  0.1848E+02
     -0.334  0.4827E+01  0.1878E+02
     -0.270  0.4423E+01  0.1906E+02
     -0.207  0.3945E+01  0.1931E+02
     -0.144  0.3611E+01  0.1954E+02
     -0.081  0.3551E+01  0.1977E+02
     -0.017  0.3825E+01  0.2001E+02
      0.046  0.4385E+01  0.2029E+02
      0.109  0.5020E+01  0.2060E+02
      0.172  0.5425E+01  0.2095E+02
      0.236  0.5428E+01  0.2129E+02
      0.299  0.5168E+01  0.2162E+02
      0.362  0.4993E+01  0.2193E+02
      0.425  0.5147E+01  0.2226E+02
      0.489  0.5548E+01  0.2261E+02
      0.552  0.5886E+01  0.2298E+02
      0.615  0.5909E+01  0.2335E+02
      0.678  0.5606E+01  0.2371E+02
      0.742  0.5139E+01  0.2403E+02
      0.805  0.4715E+01  0.2433E+02
      0.868  0.4494E+01  0.2462E+02
      0.931  0.4512E+01  0.2490E+02
      0.995  0.4633E+01  0.2519E+02
      1.058  0.4657E+01  0.2549E+02
      1.121  0.4513E+01  0.2577E+02
      1.184  0.4325E+01  0.2605E+02
      1.248  0.4242E+01  0.2632E+02
      1.311  0.4274E+01  0.2659E+02
      1.374  0.4326E+01  0.2686E+02
      1.437  0.4358E+01  0.2714E+02
      1.501  0.4448E+01  0.2742E+02
      1.564  0.4669E+01  0.2771E+02
      1.627  0.4954E+01  0.2803E+02
      1.690  0.5121E+01  0.2835E+02
      1.753  0.5031E+01  0.2867E+02
      1.817  0.4690E+01  0.2896E+02
      1.880  0.4202E+01  0.2923E+02
      1.943  0.3642E+01  0.2946E+02
      2.006  0.3042E+01  0.2965E+02
      2.070  0.2462E+01  0.2981E+02
      2.133  0.2041E+01  0.2994E+02
      2.196  0.1919E+01  0.3006E+02
      2.259  0.2129E+01  0.3019E+02
      2.323  0.2536E+01  0.3035E+02
      2.386  0.2893E+01  0.3054E+02
      2.449  0.2999E+01  0.3073E+02
      2.512  0.2827E+01  0.3091E+02
      2.576  0.2509E+01  0.3106E+02
      2.639  0.2186E+01  0.3120E+02
      2.702  0.1899E+01  0.3132E+02
      2.765  0.1609E+01  0.3142E+02
      2.829  0.1283E+01  0.3151E+02
      2.892  0.9494E+00  0.3157E+02
      2.955  0.6826E+00  0.3161E+02
      3.018  0.5473E+00  0.3164E+02
      3.082  0.5492E+00  0.3168E+02
      3.145  0.6260E+00  0.3172E+02
      3.208  0.6918E+00  0.3176E+02
      3.271  0.7012E+00  0.3181E+02
      3.335  0.6770E+00  0.3185E+02
      3.398  0.6769E+00  0.3189E+02
      3.461  0.7408E+00  0.3194E+02
      3.524  0.8699E+00  0.3199E+02
      3.588  0.1037E+01  0.3206E+02
      3.651  0.1194E+01  0.3213E+02
      3.714  0.1284E+01  0.3222E+02
      3.777  0.1275E+01  0.3230E+02
      3.841  0.1203E+01  0.3237E+02
      3.904  0.1169E+01  0.3245E+02
      3.967  0.1260E+01  0.3253E+02
      4.030  0.1469E+01  0.3262E+02
      4.094  0.1696E+01  0.3273E+02
      4.157  0.1851E+01  0.3284E+02
      4.220  0.1959E+01  0.3297E+02
      4.283  0.2126E+01  0.3310E+02
      4.347  0.2416E+01  0.3325E+02
      4.410  0.2790E+01  0.3343E+02
      4.473  0.3182E+01  0.3363E+02
      4.536  0.3582E+01  0.3386E+02
      4.600  0.4005E+01  0.3411E+02
      4.663  0.4401E+01  0.3439E+02
      4.726  0.4679E+01  0.3469E+02
      4.789  0.4821E+01  0.3499E+02
      4.853  0.4913E+01  0.3530E+02
      4.916  0.5039E+01  0.3562E+02
      4.979  0.5160E+01  0.3595E+02
      5.042  0.5146E+01  0.3627E+02
      5.106  0.4935E+01  0.3658E+02
      5.169  0.4625E+01  0.3688E+02
      5.232  0.4372E+01  0.3715E+02
      5.295  0.4230E+01  0.3742E+02
      5.359  0.4135E+01  0.3768E+02
      5.422  0.4011E+01  0.3794E+02
      5.485  0.3827E+01  0.3818E+02
      5.548  0.3556E+01  0.3840E+02
      5.612  0.3179E+01  0.3860E+02
      5.675  0.2743E+01  0.3878E+02
      5.738  0.2363E+01  0.3893E+02
      5.801  0.2120E+01  0.3906E+02
      5.865  0.1986E+01  0.3919E+02
      5.928  0.1877E+01  0.3931E+02
      5.991  0.1759E+01  0.3942E+02
      6.054  0.1666E+01  0.3952E+02
      6.118  0.1623E+01  0.3963E+02
      6.181  0.1585E+01  0.3973E+02
      6.244  0.1458E+01  0.3982E+02
      6.307  0.1190E+01  0.3989E+02
      6.371  0.8312E+00  0.3995E+02
      6.434  0.4865E+00  0.3998E+02
      6.497  0.2362E+00  0.3999E+02
      6.560  0.9465E-01  0.4000E+02
      6.624  0.3123E-01  0.4000E+02
      6.687  0.8474E-02  0.4000E+02
      6.750  0.1889E-02  0.4000E+02
      6.813  0.3460E-03  0.4000E+02
      6.877  0.5203E-04  0.4000E+02
      6.940  0.6424E-05  0.4000E+02
      7.003  0.6511E-06  0.4000E+02
      7.066  0.5417E-07  0.4000E+02
      7.130  0.3699E-08  0.4000E+02
      7.193  0.2072E-09  0.4000E+02
      7.256  0.9528E-11  0.4000E+02
      7.319  0.3604E-12  0.4000E+02
      7.382  0.1092E-13  0.4000E+02
      7.446  0.0000E+00  0.4000E+02
      7.509  0.0000E+00  0.4000E+02
      7.572  0.0000E+00  0.4000E+02
      7.635  0.0000E+00  0.4000E+02
      7.699  0.0000E+00  0.4000E+02
      7.762  0.0000E+00  0.4000E+02
      7.825  0.0000E+00  0.4000E+02
      7.888  0.0000E+00  0.4000E+02
      7.952  0.0000E+00  0.4000E+02
      8.015  0.0000E+00  0.4000E+02
      8.078  0.0000E+00  0.4000E+02
      8.141  0.0000E+00  0.4000E+02
      8.205  0.0000E+00  0.4000E+02
