    8    8    1    1
  0.2392351E+02  0.5762863E-09  0.5762863E-09  0.5762863E-09  0.5000000E-15
  1.000000000000000E-004
  CAR 
 unknown system                          
   24   10   20
 
  0.8333333E-01  0.8333333E-01  0.8333333E-01  0.3703704E-01
   1       -8.769438
   2       -5.428219
   3       -5.428219
   4       -5.428219
   5       -4.182219
   6       -4.182219
   7       -4.182219
   8       -0.112337
   9       -0.112337
  10       -0.112337
  11        0.316400
  12        0.316400
  13        0.316400
  14        2.432466
  15        3.467971
  16        3.467971
  17        3.659726
  18        3.659726
  19        3.659727
  20        4.252090
 
  0.2500000E+00  0.8333333E-01  0.8333333E-01  0.1111111E+00
   1       -8.539196
   2       -6.509843
   3       -5.336148
   4       -5.336148
   5       -4.174916
   6       -4.174916
   7       -2.832261
   8       -0.714455
   9       -0.714455
  10        0.113305
  11        0.113305
  12        0.186873
  13        0.565856
  14        1.199201
  15        2.631168
  16        2.791070
  17        3.772975
  18        4.422580
  19        4.422580
  20        4.728021
 
  0.4166667E+00  0.8333333E-01  0.8333333E-01  0.1111111E+00
   1       -8.081165
   2       -7.401240
   3       -5.229186
   4       -5.229186
   5       -4.183667
   6       -4.183667
   7       -1.444974
   8       -1.057214
   9       -1.057214
  10       -0.231812
  11       -0.231812
  12       -0.094320
  13        0.791433
  14        1.053986
  15        1.693904
  16        1.759923
  17        4.095275
  18        4.633807
  19        5.556056
  20        5.988927
 
  0.2500000E+00  0.2500000E+00  0.8333333E-01  0.1111111E+00
   1       -8.312504
   2       -6.343473
   3       -6.343473
   4       -5.435260
   5       -4.090962
   6       -3.059157
   7       -3.059157
   8       -1.190879
   9       -0.375888
  10       -0.375888
  11        0.119134
  12        0.495366
  13        0.495366
  14        0.741739
  15        1.872950
  16        3.182040
  17        4.098873
  18        4.642187
  19        4.642188
  20        5.281492
 
  0.4166667E+00  0.2500000E+00  0.8333333E-01  0.2222222E+00
   1       -7.863119
   2       -7.200296
   3       -6.044342
   4       -5.696197
   5       -3.843483
   6       -3.451075
   7       -1.993729
   8       -1.220690
   9       -0.957568
  10       -0.890354
  11        0.218049
  12        0.495219
  13        0.721168
  14        0.983850
  15        1.291747
  16        2.369727
  17        5.027860
  18        5.063748
  19        5.568023
  20        6.204705
 
  0.4166667E+00  0.4166667E+00  0.8333333E-01  0.1111111E+00
   1       -7.434662
   2       -6.814497
   3       -6.814497
   4       -6.284190
   5       -3.337473
   6       -2.697256
   7       -2.697256
   8       -1.872308
   9       -0.995213
  10       -0.471253
  11       -0.471253
  12        0.177083
  13        1.519253
  14        1.586242
  15        1.586242
  16        2.454539
  17        4.841296
  18        5.496504
  19        5.830012
  20        5.830018
 
  0.2500000E+00  0.2500000E+00  0.2500000E+00  0.3703704E-01
   1       -8.091161
   2       -6.234284
   3       -6.234284
   4       -6.234284
   5       -3.419827
   6       -3.419827
   7       -3.419827
   8       -0.905050
   9       -0.491929
  10       -0.491929
  11       -0.491929
  12        0.965062
  13        0.965062
  14        0.965062
  15        2.662911
  16        2.662911
  17        4.380613
  18        4.380613
  19        4.380613
  20        4.450759
 
  0.4166667E+00  0.2500000E+00  0.2500000E+00  0.1111111E+00
   1       -7.655071
   2       -7.021810
   3       -6.104340
   4       -6.104340
   5       -3.769514
   6       -3.769514
   7       -2.699041
   8       -1.874173
   9       -0.432290
  10       -0.432290
  11        0.664309
  12        1.033673
  13        1.033673
  14        1.396143
  15        1.947742
  16        1.993764
  17        4.879857
  18        4.979197
  19        5.258172
  20        5.258172
 
  0.4166667E+00  0.4166667E+00  0.2500000E+00  0.1111111E+00
   1       -7.253567
   2       -6.700709
   3       -6.700709
   4       -6.337979
   5       -3.802437
   6       -3.394381
   7       -3.394381
   8       -2.740556
   9        0.068301
  10        0.523402
  11        0.523402
  12        1.320395
  13        1.663850
  14        1.700490
  15        1.700490
  16        2.369496
  17        4.786724
  18        4.985806
  19        5.354421
  20        5.354425
 
  0.4166667E+00  0.4166667E+00  0.4166667E+00  0.3703704E-01
   1       -6.928728
   2       -6.565038
   3       -6.565038
   4       -6.565038
   5       -3.904776
   6       -3.904776
   7       -3.904776
   8       -3.498185
   9        1.380501
  10        1.380501
  11        1.380501
  12        1.910572
  13        1.910572
  14        1.910572
  15        2.177158
  16        2.177158
  17        4.042073
  18        4.670487
  19        4.670488
  20        4.670487
