 running on   20 total cores
 distrk:  each k-point on   20 cores,    1 groups
 distr:  one band on    1 cores,   20 groups
 using from now: INCAR     
 vasp.5.3.3 18Dez12 (build Dec 13 2014 13:36:02) complex                        
  
 POSCAR found type information on POSCAR  Ga
 POSCAR found :  1 types and       8 ions
 scaLAPACK will be used

 ----------------------------------------------------------------------------- 
|                                                                             |
|           W    W    AA    RRRRR   N    N  II  N    N   GGGG   !!!           |
|           W    W   A  A   R    R  NN   N  II  NN   N  G    G  !!!           |
|           W    W  A    A  R    R  N N  N  II  N N  N  G       !!!           |
|           W WW W  AAAAAA  RRRRR   N  N N  II  N  N N  G  GGG   !            |
|           WW  WW  A    A  R   R   N   NN  II  N   NN  G    G                |
|           W    W  A    A  R    R  N    N  II  N    N   GGGG   !!!           |
|                                                                             |
|      For optimal performance we recommend that you set                      |
|        NPAR = 4 - approx SQRT( number of cores)                             |
|      (number of cores/NPAR must be integer)                                 |
|      This setting will greatly improve the performance of VASP for DFT.     |
|      The default NPAR=number of cores might be grossly inefficient          |
|      on modern multi-core architectures or massively parallel machines.     |
|      Do your own testing.                                                   |
|      Unfortunately you need to use the default for hybrid, GW and RPA       |
|      calculations.                                                          |
|                                                                             |
 ----------------------------------------------------------------------------- 

 LDA part: xc-table for Pade appr. of Perdew
 POSCAR, INCAR and KPOINTS ok, starting setup
 WARNING: small aliasing (wrap around) errors must be expected
 FFT: planning ...
 WAVECAR not read
 entering main loop
       N       E                     dE             d eps       ncg     rms          rms(c)
DAV:   1     0.119749990542E+02    0.11975E+02   -0.42007E+03   400   0.320E+02
DAV:   2    -0.206038146487E+02   -0.32579E+02   -0.32287E+02   640   0.598E+01
DAV:   3    -0.210254070966E+02   -0.42159E+00   -0.42146E+00   400   0.936E+00
DAV:   4    -0.210262264975E+02   -0.81940E-03   -0.81940E-03   740   0.393E-01
DAV:   5    -0.210262265245E+02   -0.27045E-07   -0.27045E-07   420   0.220E-03    0.280E+00
RMM:   6    -0.209401638704E+02    0.86063E-01   -0.77628E-03   400   0.649E-01    0.174E+00
RMM:   7    -0.208934906587E+02    0.46673E-01   -0.22204E-02   400   0.106E+00    0.857E-02
RMM:   8    -0.208937917903E+02   -0.30113E-03   -0.43280E-04   349   0.971E-02    0.195E-02
RMM:   9    -0.208938306109E+02   -0.38821E-04   -0.80814E-05   259   0.464E-02
   1 F= -.20893831E+02 E0= -.20844313E+02  d E =-.990360E-01
