       N       E                     dE             d eps       ncg     rms          rms(c)
DAV:   1     0.119749990542E+02    0.11975E+02   -0.42007E+03   400   0.320E+02
DAV:   2    -0.206038146487E+02   -0.32579E+02   -0.32287E+02   640   0.598E+01
DAV:   3    -0.210254070966E+02   -0.42159E+00   -0.42146E+00   400   0.936E+00
DAV:   4    -0.210262264975E+02   -0.81940E-03   -0.81940E-03   740   0.393E-01
DAV:   5    -0.210262265245E+02   -0.27045E-07   -0.27045E-07   420   0.220E-03    0.280E+00
RMM:   6    -0.209401638704E+02    0.86063E-01   -0.77628E-03   400   0.649E-01    0.174E+00
RMM:   7    -0.208934906587E+02    0.46673E-01   -0.22204E-02   400   0.106E+00    0.857E-02
RMM:   8    -0.208937917903E+02   -0.30113E-03   -0.43280E-04   349   0.971E-02    0.195E-02
RMM:   9    -0.208938306109E+02   -0.38821E-04   -0.80814E-05   259   0.464E-02
   1 F= -.20893831E+02 E0= -.20844313E+02  d E =-.990360E-01
