<?xml version="1.0" encoding="ISO-8859-1"?>
<modeling>
 <generator>
  <i name="program" type="string">vasp </i>
  <i name="version" type="string">5.3.3  </i>
  <i name="subversion" type="string">18Dez12 (build Dec 13 2014 13:36:02) complex                          parallel </i>
  <i name="platform" type="string">LinuxIFC </i>
  <i name="date" type="string">2018 11 27 </i>
  <i name="time" type="string">23:29:33 </i>
 </generator>
 <incar>
  <i type="string" name="PREC">normal</i>
  <i type="string" name="ALGO"> Fast</i>
  <i type="int" name="ISPIN">     1</i>
  <i type="int" name="IBRION">    -1</i>
  <i type="int" name="NSW">     0</i>
  <i type="int" name="ISYM">     1</i>
  <i type="int" name="ISMEAR">     0</i>
  <i name="SIGMA">      0.20000000</i>
  <i type="logical" name="LWAVE"> F  </i>
  <i type="logical" name="LCHARG"> F  </i>
 </incar>
 <kpoints>
  <generation param="Monkhorst-Pack">
   <v type="int" name="divisions">       6        6        6 </v>
   <v name="usershift">      0.00000000       0.00000000       0.00000000 </v>
   <v name="genvec1">      0.16666667       0.00000000       0.00000000 </v>
   <v name="genvec2">      0.00000000       0.16666667       0.00000000 </v>
   <v name="genvec3">      0.00000000       0.00000000       0.16666667 </v>
   <v name="shift">      0.50000000       0.50000000       0.50000000 </v>
  </generation>
  <varray name="kpointlist" >
   <v>       0.08333333       0.08333333       0.08333333 </v>
   <v>       0.25000000       0.08333333       0.08333333 </v>
   <v>       0.41666667       0.08333333       0.08333333 </v>
   <v>       0.25000000       0.25000000       0.08333333 </v>
   <v>       0.41666667       0.25000000       0.08333333 </v>
   <v>       0.41666667       0.41666667       0.08333333 </v>
   <v>       0.25000000       0.25000000       0.25000000 </v>
   <v>       0.41666667       0.25000000       0.25000000 </v>
   <v>       0.41666667       0.41666667       0.25000000 </v>
   <v>       0.41666667       0.41666667       0.41666667 </v>
  </varray>
  <varray name="weights" >
   <v>       0.03703704 </v>
   <v>       0.11111111 </v>
   <v>       0.11111111 </v>
   <v>       0.11111111 </v>
   <v>       0.22222222 </v>
   <v>       0.11111111 </v>
   <v>       0.03703704 </v>
   <v>       0.11111111 </v>
   <v>       0.11111111 </v>
   <v>       0.03703704 </v>
  </varray>
 </kpoints>
 <parameters>
  <separator name="general" >
   <i type="string" name="SYSTEM">unknown system</i>
   <i type="logical" name="LCOMPAT"> F  </i>
  </separator>
  <separator name="electronic" >
   <i type="string" name="PREC">normal</i>
   <i name="ENMAX">    134.67800000</i>
   <i name="ENAUG">    320.26400000</i>
   <i name="EDIFF">      0.00010000</i>
   <i type="int" name="IALGO">    68</i>
   <i type="int" name="IWAVPR">    10</i>
   <i type="int" name="NBANDS">    20</i>
   <i name="NELECT">     24.00000000</i>
   <i type="int" name="TURBO">     0</i>
   <i type="int" name="IRESTART">     0</i>
   <i type="int" name="NREBOOT">     0</i>
   <i type="int" name="NMIN">     0</i>
   <i name="EREF">      0.00000000</i>
   <separator name="electronic smearing" >
    <i type="int" name="ISMEAR">     0</i>
    <i name="SIGMA">      0.20000000</i>
    <i name="KSPACING">      0.50000000</i>
    <i type="logical" name="KGAMMA"> T  </i>
   </separator>
   <separator name="electronic projectors" >
    <i type="logical" name="LREAL"> F  </i>
    <v name="ROPT">      0.00000000</v>
    <i type="int" name="LMAXPAW">  -100</i>
    <i type="int" name="LMAXMIX">     2</i>
    <i type="logical" name="NLSPLINE"> F  </i>
   </separator>
   <separator name="electronic startup" >
    <i type="int" name="ISTART">     0</i>
    <i type="int" name="ICHARG">     2</i>
    <i type="int" name="INIWAV">     1</i>
   </separator>
   <separator name="electronic spin" >
    <i type="int" name="ISPIN">     1</i>
    <i type="logical" name="LNONCOLLINEAR"> F  </i>
    <v name="MAGMOM">      1.00000000      1.00000000      1.00000000      1.00000000      1.00000000      1.00000000      1.00000000      1.00000000</v>
    <i name="NUPDOWN">     -1.00000000</i>
    <i type="logical" name="LSORBIT"> F  </i>
    <v name="SAXIS">      0.00000000      0.00000000      1.00000000</v>
    <i type="logical" name="LSPIRAL"> F  </i>
    <v name="QSPIRAL">      0.00000000      0.00000000      0.00000000</v>
    <i type="logical" name="LZEROZ"> F  </i>
   </separator>
   <separator name="electronic exchange-correlation" >
    <i type="logical" name="LASPH"> F  </i>
    <i type="logical" name="LMETAGGA"> F  </i>
   </separator>
   <separator name="electronic convergence" >
    <i type="int" name="NELM">    60</i>
    <i type="int" name="NELMDL">    -5</i>
    <i type="int" name="NELMIN">     2</i>
    <i name="ENINI">    134.67800000</i>
    <separator name="electronic convergence detail" >
     <i type="logical" name="LDIAG"> T  </i>
     <i type="logical" name="LSUBROT"> T  </i>
     <i name="WEIMIN">      0.00000000</i>
     <i name="EBREAK">      0.00000125</i>
     <i name="DEPER">      0.30000000</i>
     <i type="int" name="NRMM">     4</i>
     <i name="TIME">      0.40000000</i>
    </separator>
   </separator>
   <separator name="electronic mixer" >
    <i name="AMIX">      0.40000000</i>
    <i name="BMIX">      1.00000000</i>
    <i name="AMIN">      0.10000000</i>
    <i name="AMIX_MAG">      1.60000000</i>
    <i name="BMIX_MAG">      1.00000000</i>
    <separator name="electronic mixer details" >
     <i type="int" name="IMIX">     4</i>
     <i type="int" name="MAXMIX">   -45</i>
     <i name="WC">    100.00000000</i>
     <i type="int" name="INIMIX">     1</i>
     <i type="int" name="MIXPRE">     1</i>
     <i type="int" name="MREMOVE">     5</i>
    </separator>
   </separator>
   <separator name="electronic dipolcorrection" >
    <i type="logical" name="LDIPOL"> F  </i>
    <i type="logical" name="LMONO"> F  </i>
    <i type="int" name="IDIPOL">     0</i>
    <i name="EPSILON">      1.00000000</i>
    <v name="DIPOL">   -100.00000000   -100.00000000   -100.00000000</v>
    <i name="EFIELD">      0.00000000</i>
   </separator>
  </separator>
  <separator name="grids" >
   <i type="int" name="NGX">    16</i>
   <i type="int" name="NGY">    16</i>
   <i type="int" name="NGZ">    16</i>
   <i type="int" name="NGXF">    32</i>
   <i type="int" name="NGYF">    32</i>
   <i type="int" name="NGZF">    32</i>
   <i type="logical" name="ADDGRID"> F  </i>
  </separator>
  <separator name="ionic" >
   <i type="int" name="NSW">     0</i>
   <i type="int" name="IBRION">    -1</i>
   <i type="int" name="ISIF">     2</i>
   <i name="PSTRESS">      0.00000000</i>
   <i name="EDIFFG">      0.00100000</i>
   <i type="int" name="NFREE">     0</i>
   <i name="POTIM">      0.50000000</i>
   <i name="SMASS">     -3.00000000</i>
   <i name="SCALEE">      1.00000000</i>
  </separator>
  <separator name="ionic md" >
   <i name="TEBEG">      0.00010000</i>
   <i name="TEEND">      0.00010000</i>
   <i type="int" name="NBLOCK">     1</i>
   <i type="int" name="KBLOCK">     1</i>
   <i type="int" name="NPACO">   256</i>
   <i name="APACO">     16.00000000</i>
  </separator>
  <separator name="symmetry" >
   <i type="int" name="ISYM">     1</i>
   <i name="SYMPREC">      0.00001000</i>
  </separator>
  <separator name="dos" >
   <i type="logical" name="LORBIT"> F  </i>
   <v name="RWIGS">     -1.00000000</v>
   <i type="int" name="NEDOS">   301</i>
   <i name="EMIN">     10.00000000</i>
   <i name="EMAX">    -10.00000000</i>
   <i name="EFERMI">      0.00000000</i>
  </separator>
  <separator name="writing" >
   <i type="int" name="NWRITE">     2</i>
   <i type="logical" name="LWAVE"> F  </i>
   <i type="logical" name="LCHARG"> F  </i>
   <i type="logical" name="LPARD"> F  </i>
   <i type="logical" name="LVTOT"> F  </i>
   <i type="logical" name="LVHAR"> F  </i>
   <i type="logical" name="LELF"> F  </i>
   <i type="logical" name="LOPTICS"> F  </i>
   <v name="STM">      0.00000000      0.00000000      0.00000000      0.00000000      0.00000000      0.00000000      0.00000000</v>
  </separator>
  <separator name="performance" >
   <i type="int" name="NPAR">    20</i>
   <i type="int" name="NSIM">     4</i>
   <i type="int" name="NBLK">    -1</i>
   <i type="logical" name="LPLANE"> T  </i>
   <i type="logical" name="LSCALAPACK"> T  </i>
   <i type="logical" name="LSCAAWARE"> F  </i>
   <i type="logical" name="LSCALU"> F  </i>
   <i type="logical" name="LASYNC"> F  </i>
   <i type="logical" name="LORBITALREAL"> F  </i>
  </separator>
  <separator name="miscellaneous" >
   <i type="int" name="IDIOT">     3</i>
   <i type="logical" name="LMUSIC"> F  </i>
   <v name="POMASS">     69.72300000</v>
   <v name="DARWINR">      0.00000000</v>
   <v name="DARWINV">      1.00000000</v>
   <i type="logical" name="LCORR"> T  </i>
  </separator>
  <i type="logical" name="GGA_COMPAT"> T  </i>
  <i type="logical" name="LBERRY"> F  </i>
  <i type="int" name="ICORELEVEL">     0</i>
  <i type="logical" name="LDAU"> F  </i>
  <i type="int" name="I_CONSTRAINED_M">     0</i>
  <separator name="electronic exchange-correlation" >
   <i type="string" name="GGA">--</i>
   <i type="int" name="VOSKOWN">     0</i>
   <i type="logical" name="LHFCALC"> F  </i>
   <i type="string" name="PRECFOCK"></i>
   <i type="logical" name="LSYMGRAD"> F  </i>
   <i type="logical" name="LHFONE"> F  </i>
   <i type="logical" name="LRHFCALC"> F  </i>
   <i type="logical" name="LTHOMAS"> F  </i>
   <i type="logical" name="LMODELHF"> F  </i>
   <i name="ENCUT4O">     -1.00000000</i>
   <i type="int" name="EXXOEP">     0</i>
   <i type="int" name="FOURORBIT">     0</i>
   <i name="AEXX">      0.00000000</i>
   <i name="HFALPHA">      0.00000000</i>
   <i name="MCALPHA">      0.00000000</i>
   <i name="ALDAX">      1.00000000</i>
   <i name="AGGAX">      1.00000000</i>
   <i name="ALDAC">      1.00000000</i>
   <i name="AGGAC">      1.00000000</i>
   <i type="int" name="NKREDX">     1</i>
   <i type="int" name="NKREDY">     1</i>
   <i type="int" name="NKREDZ">     1</i>
   <i type="logical" name="SHIFTRED"> F  </i>
   <i type="logical" name="ODDONLY"> F  </i>
   <i type="logical" name="EVENONLY"> F  </i>
   <i type="int" name="LMAXFOCK">     0</i>
   <i type="int" name="NMAXFOCKAE">     0</i>
   <i type="logical" name="LFOCKAEDFT"> F  </i>
   <i name="HFSCREEN">      0.00000000</i>
   <i name="HFSCREENC">      0.00000000</i>
   <i type="int" name="NBANDSGWLOW">     0</i>
  </separator>
  <separator name="vdW DFT" >
   <i type="logical" name="LUSE_VDW"> F  </i>
   <i name="Zab_VDW">     -0.84910000</i>
   <i name="PARAM1">      0.12340000</i>
   <i name="PARAM2">      1.00000000</i>
   <i name="PARAM3">      0.00000000</i>
  </separator>
  <separator name="model GW" >
   <i type="int" name="MODEL_GW">     0</i>
   <i name="MODEL_EPS0">     14.35410601</i>
   <i name="MODEL_ALPHA">      1.00000000</i>
  </separator>
  <separator name="linear response parameters" >
   <i type="logical" name="LEPSILON"> F  </i>
   <i type="logical" name="LRPA"> F  </i>
   <i type="logical" name="LNABLA"> F  </i>
   <i type="logical" name="LVEL"> F  </i>
   <i type="int" name="KINTER">     0</i>
   <i name="CSHIFT">      0.10000000</i>
   <i name="OMEGAMAX">     -1.00000000</i>
   <i name="DEG_THRESHOLD">      0.00200000</i>
  </separator>
  <separator name="orbital magnetization" >
   <i type="logical" name="NUCIND"> F  </i>
   <v name="MAGPOS">      0.00000000      0.00000000      0.00000000</v>
   <i type="logical" name="LNICSALL"> T  </i>
   <i type="logical" name="ORBITALMAG"> F  </i>
   <i type="logical" name="LMAGBLOCH"> F  </i>
   <i type="logical" name="LCHIMAG"> F  </i>
   <i type="logical" name="LGAUGE"> T  </i>
   <i type="int" name="MAGATOM">     0</i>
   <v name="MAGDIPOL">      0.00000000      0.00000000      0.00000000</v>
   <v name="AVECCONST">      0.00000000      0.00000000      0.00000000</v>
  </separator>
  <separator name="response functions" >
   <i type="logical" name="LADDER"> F  </i>
   <i type="logical" name="LFXC"> F  </i>
   <i type="logical" name="LHARTREE"> T  </i>
   <i type="int" name="IBSE">     0</i>
   <i type="logical" name="LTCTE"> F  </i>
   <i type="logical" name="LTETE"> F  </i>
   <i type="logical" name="LTRIPLET"> F  </i>
   <i type="logical" name="LFXCEPS"> F  </i>
   <i type="logical" name="L2ORDER"> F  </i>
   <i type="logical" name="LUSEW"> F  </i>
   <i name="ENCUTGW">     -2.00000000</i>
   <i name="ENCUTGWSOFT">     -2.00000000</i>
   <i name="ENCUTLF">     -1.00000000</i>
   <i type="int" name="LMAXMP2">    -1</i>
   <i name="SCISSOR">      0.00000000</i>
   <i type="int" name="NOMEGA">     0</i>
   <i type="int" name="NOMEGAR">     0</i>
   <i type="int" name="NBANDSGW">    -1</i>
   <i type="int" name="NBANDSO">    -1</i>
   <i type="int" name="NBANDSV">    -1</i>
   <i type="int" name="NELM">     1</i>
   <i type="int" name="DIM">     3</i>
   <i type="int" name="ANTIRES">     0</i>
   <i name="OMEGAMAX">    -30.00000000</i>
   <i name="OMEGATL">   -200.00000000</i>
   <i type="int" name="OMEGAGRID">     0</i>
   <i name="CSHIFT">     -0.10000000</i>
   <i type="logical" name="SELFENERGY"> F  </i>
   <i type="logical" name="LSPECTRAL"> F  </i>
   <i type="logical" name="ODDONLYGW"> F  </i>
   <i type="logical" name="EVENONLYGW"> F  </i>
   <i type="int" name="NKREDLFX">     1</i>
   <i type="int" name="NKREDLFY">     1</i>
   <i type="int" name="NKREDLFZ">     1</i>
   <i type="int" name="MAXMEM">  1800</i>
   <i type="int" name="TELESCOPE">     0</i>
  </separator>
 </parameters>
 <atominfo>
  <atoms>       8 </atoms>
  <types>       1 </types>
  <array name="atoms" >
   <dimension dim="1">ion</dimension>
   <field type="string">element</field>
   <field type="int">atomtype</field>
   <set>
    <rc><c>Ga</c><c>   1</c></rc>
    <rc><c>Ga</c><c>   1</c></rc>
    <rc><c>Ga</c><c>   1</c></rc>
    <rc><c>Ga</c><c>   1</c></rc>
    <rc><c>Ga</c><c>   1</c></rc>
    <rc><c>Ga</c><c>   1</c></rc>
    <rc><c>Ga</c><c>   1</c></rc>
    <rc><c>Ga</c><c>   1</c></rc>
   </set>
  </array>
  <array name="atomtypes" >
   <dimension dim="1">type</dimension>
   <field type="int">atomspertype</field>
   <field type="string">element</field>
   <field>mass</field>
   <field>valence</field>
   <field type="string">pseudopotential</field>
   <set>
    <rc><c>   8</c><c>Ga</c><c>     69.72300000</c><c>      3.00000000</c><c> PAW_PBE Ga 08Apr2002                   </c></rc>
   </set>
  </array>
 </atominfo>
 <structure name="initialpos" >
  <crystal>
   <varray name="basis" >
    <v>       5.76286300       0.00000000       0.00000000 </v>
    <v>       0.00000000       5.76286300       0.00000000 </v>
    <v>       0.00000000       0.00000000       5.76286300 </v>
   </varray>
   <i name="volume">    191.38808007 </i>
   <varray name="rec_basis" >
    <v>       0.17352486       0.00000000       0.00000000 </v>
    <v>       0.00000000       0.17352486       0.00000000 </v>
    <v>       0.00000000       0.00000000       0.17352486 </v>
   </varray>
  </crystal>
  <varray name="positions" >
   <v>       0.75000000       0.75000000       0.75000000 </v>
   <v>       0.50000000       0.00000000       0.00000000 </v>
   <v>       0.75000000       0.25000000       0.25000000 </v>
   <v>       0.50000000       0.50000000       0.50000000 </v>
   <v>       0.25000000       0.75000000       0.25000000 </v>
   <v>       0.00000000       0.00000000       0.50000000 </v>
   <v>       0.25000000       0.25000000       0.75000000 </v>
   <v>       0.00000000       0.50000000       0.00000000 </v>
  </varray>
 </structure>
 <calculation>
  <scstep>
   <time name="dav">    0.05    0.05</time>
   <time name="total">    0.07    0.08</time>
   <energy>
    <i name="alphaZ">     59.64982895 </i>
    <i name="ewald">   -484.56382983 </i>
    <i name="hartreedc">    -22.55400900 </i>
    <i name="XCdc">   -155.28694958 </i>
    <i name="pawpsdc">    330.10196642 </i>
    <i name="pawaedc">   -140.54714835 </i>
    <i name="eentropy">     -0.03347086 </i>
    <i name="bandstr">    -45.72259823 </i>
    <i name="atom">    470.93120954 </i>
    <i name="e_fr_energy">     11.97499905 </i>
    <i name="e_wo_entrp">     12.00846992 </i>
    <i name="e_0_energy">     11.99173449 </i>
   </energy>
  </scstep>
  <scstep>
   <time name="dav">    0.08    0.09</time>
   <time name="total">    0.09    0.09</time>
   <energy>
    <i name="e_fr_energy">    -20.60381465 </i>
    <i name="e_wo_entrp">    -20.50492292 </i>
    <i name="e_0_energy">    -20.55436878 </i>
   </energy>
  </scstep>
  <scstep>
   <time name="dav">    0.04    0.04</time>
   <time name="total">    0.04    0.04</time>
   <energy>
    <i name="e_fr_energy">    -21.02540710 </i>
    <i name="e_wo_entrp">    -20.92649450 </i>
    <i name="e_0_energy">    -20.97595080 </i>
   </energy>
  </scstep>
  <scstep>
   <time name="dav">    0.11    0.11</time>
   <time name="total">    0.11    0.11</time>
   <energy>
    <i name="e_fr_energy">    -21.02622650 </i>
    <i name="e_wo_entrp">    -20.92730608 </i>
    <i name="e_0_energy">    -20.97676629 </i>
   </energy>
  </scstep>
  <scstep>
   <time name="dav">    0.04    0.04</time>
   <time name="total">    0.06    0.06</time>
   <energy>
    <i name="e_fr_energy">    -21.02622652 </i>
    <i name="e_wo_entrp">    -20.92730611 </i>
    <i name="e_0_energy">    -20.97676632 </i>
   </energy>
  </scstep>
  <scstep>
   <time name="diag">    0.03    0.06</time>
   <time name="diis">    0.01    0.01</time>
   <time name="orth">    0.00    0.00</time>
   <time name="total">    0.06    0.13</time>
   <energy>
    <i name="e_fr_energy">    -20.94016387 </i>
    <i name="e_wo_entrp">    -20.84124189 </i>
    <i name="e_0_energy">    -20.89070288 </i>
   </energy>
  </scstep>
  <scstep>
   <time name="diag">    0.01    0.01</time>
   <time name="diis">    0.01    0.01</time>
   <time name="orth">    0.00    0.00</time>
   <time name="total">    0.04    0.04</time>
   <energy>
    <i name="e_fr_energy">    -20.89349066 </i>
    <i name="e_wo_entrp">    -20.79451447 </i>
    <i name="e_0_energy">    -20.84400256 </i>
   </energy>
  </scstep>
  <scstep>
   <time name="diag">    0.01    0.01</time>
   <time name="diis">    0.02    0.02</time>
   <time name="orth">    0.00    0.00</time>
   <time name="total">    0.04    0.05</time>
   <energy>
    <i name="e_fr_energy">    -20.89379179 </i>
    <i name="e_wo_entrp">    -20.79477253 </i>
    <i name="e_0_energy">    -20.84428216 </i>
   </energy>
  </scstep>
  <scstep>
   <time name="diag">    0.01    0.01</time>
   <time name="diis">    0.02    0.02</time>
   <time name="orth">    0.00    0.00</time>
   <time name="total">    0.04    0.04</time>
   <energy>
    <i name="alphaZ">     59.64982895 </i>
    <i name="ewald">   -484.56382983 </i>
    <i name="hartreedc">    -24.22707371 </i>
    <i name="XCdc">   -153.70159160 </i>
    <i name="pawpsdc">    423.39723964 </i>
    <i name="pawaedc">   -235.27108276 </i>
    <i name="eentropy">     -0.09903597 </i>
    <i name="bandstr">    -77.00949487 </i>
    <i name="atom">    470.93120954 </i>
    <i name="e_fr_energy">    -20.89383061 </i>
    <i name="e_wo_entrp">    -20.79479464 </i>
    <i name="e_0_energy">    -20.84431262 </i>
   </energy>
  </scstep>
  <structure>
   <crystal>
    <varray name="basis" >
     <v>       5.76286300       0.00000000       0.00000000 </v>
     <v>       0.00000000       5.76286300       0.00000000 </v>
     <v>       0.00000000       0.00000000       5.76286300 </v>
    </varray>
    <i name="volume">    191.38808007 </i>
    <varray name="rec_basis" >
     <v>       0.17352486       0.00000000       0.00000000 </v>
     <v>       0.00000000       0.17352486       0.00000000 </v>
     <v>       0.00000000       0.00000000       0.17352486 </v>
    </varray>
   </crystal>
   <varray name="positions" >
    <v>       0.75000000       0.75000000       0.75000000 </v>
    <v>       0.50000000       0.00000000       0.00000000 </v>
    <v>       0.75000000       0.25000000       0.25000000 </v>
    <v>       0.50000000       0.50000000       0.50000000 </v>
    <v>       0.25000000       0.75000000       0.25000000 </v>
    <v>       0.00000000       0.00000000       0.50000000 </v>
    <v>       0.25000000       0.25000000       0.75000000 </v>
    <v>       0.00000000       0.50000000       0.00000000 </v>
   </varray>
  </structure>
  <varray name="forces" >
   <v>      -0.00000000       0.00000000       0.00000000 </v>
   <v>       0.00000000       0.00000000      -0.00000000 </v>
   <v>      -0.00000000       0.00000000       0.00000000 </v>
   <v>       0.00000000      -0.00000000      -0.00000000 </v>
   <v>      -0.00000000      -0.00000000       0.00000000 </v>
   <v>       0.00000000       0.00000000      -0.00000000 </v>
   <v>      -0.00000000       0.00000000       0.00000000 </v>
   <v>       0.00000000      -0.00000000      -0.00000000 </v>
  </varray>
  <varray name="stress" >
   <v>      26.26428379      -0.00000000       0.00000000 </v>
   <v>      -0.00000000      26.26428379      -0.00000000 </v>
   <v>       0.00000000       0.00000000      26.26428379 </v>
  </varray>
  <energy>
   <i name="e_fr_energy">    -20.89383061 </i>
   <i name="e_wo_entrp">    -20.84431262 </i>
   <i name="e_0_energy">     -0.09903597 </i>
  </energy>
  <time name="totalsc">    0.64    0.75</time>
  <eigenvalues>
   <array>
    <dimension dim="1">band</dimension>
    <dimension dim="2">kpoint</dimension>
    <dimension dim="3">spin</dimension>
    <field>eigene</field>
    <field>occ</field>
    <set>
     <set comment="spin 1">
      <set comment="kpoint 1">
       <r>   -8.7694    1.0000 </r>
       <r>   -5.4282    1.0000 </r>
       <r>   -5.4282    1.0000 </r>
       <r>   -5.4282    1.0000 </r>
       <r>   -4.1822    1.0000 </r>
       <r>   -4.1822    1.0000 </r>
       <r>   -4.1822    1.0000 </r>
       <r>   -0.1123    1.0000 </r>
       <r>   -0.1123    1.0000 </r>
       <r>   -0.1123    1.0000 </r>
       <r>    0.3164    0.9985 </r>
       <r>    0.3164    0.9985 </r>
       <r>    0.3164    0.9985 </r>
       <r>    2.4325    0.0000 </r>
       <r>    3.4680    0.0000 </r>
       <r>    3.4680    0.0000 </r>
       <r>    3.6597    0.0000 </r>
       <r>    3.6597    0.0000 </r>
       <r>    3.6597    0.0000 </r>
       <r>    4.2521    0.0000 </r>
      </set>
      <set comment="kpoint 2">
       <r>   -8.5392    1.0000 </r>
       <r>   -6.5098    1.0000 </r>
       <r>   -5.3361    1.0000 </r>
       <r>   -5.3361    1.0000 </r>
       <r>   -4.1749    1.0000 </r>
       <r>   -4.1749    1.0000 </r>
       <r>   -2.8323    1.0000 </r>
       <r>   -0.7145    1.0000 </r>
       <r>   -0.7145    1.0000 </r>
       <r>    0.1133    1.0000 </r>
       <r>    0.1133    1.0000 </r>
       <r>    0.1869    0.9999 </r>
       <r>    0.5659    0.8837 </r>
       <r>    1.1992    0.0005 </r>
       <r>    2.6312    0.0000 </r>
       <r>    2.7911    0.0000 </r>
       <r>    3.7730    0.0000 </r>
       <r>    4.4226    0.0000 </r>
       <r>    4.4226    0.0000 </r>
       <r>    4.7280    0.0000 </r>
      </set>
      <set comment="kpoint 3">
       <r>   -8.0812    1.0000 </r>
       <r>   -7.4012    1.0000 </r>
       <r>   -5.2292    1.0000 </r>
       <r>   -5.2292    1.0000 </r>
       <r>   -4.1837    1.0000 </r>
       <r>   -4.1837    1.0000 </r>
       <r>   -1.4450    1.0000 </r>
       <r>   -1.0572    1.0000 </r>
       <r>   -1.0572    1.0000 </r>
       <r>   -0.2318    1.0000 </r>
       <r>   -0.2318    1.0000 </r>
       <r>   -0.0943    1.0000 </r>
       <r>    0.7914    0.3441 </r>
       <r>    1.0540    0.0120 </r>
       <r>    1.6939    0.0000 </r>
       <r>    1.7599    0.0000 </r>
       <r>    4.0953    0.0000 </r>
       <r>    4.6338    0.0000 </r>
       <r>    5.5561    0.0000 </r>
       <r>    5.9889    0.0000 </r>
      </set>
      <set comment="kpoint 4">
       <r>   -8.3125    1.0000 </r>
       <r>   -6.3435    1.0000 </r>
       <r>   -6.3435    1.0000 </r>
       <r>   -5.4353    1.0000 </r>
       <r>   -4.0910    1.0000 </r>
       <r>   -3.0592    1.0000 </r>
       <r>   -3.0592    1.0000 </r>
       <r>   -1.1909    1.0000 </r>
       <r>   -0.3759    1.0000 </r>
       <r>   -0.3759    1.0000 </r>
       <r>    0.1191    1.0000 </r>
       <r>    0.4954    0.9547 </r>
       <r>    0.4954    0.9547 </r>
       <r>    0.7417    0.4801 </r>
       <r>    1.8730    0.0000 </r>
       <r>    3.1820    0.0000 </r>
       <r>    4.0989    0.0000 </r>
       <r>    4.6422    0.0000 </r>
       <r>    4.6422    0.0000 </r>
       <r>    5.2815    0.0000 </r>
      </set>
      <set comment="kpoint 5">
       <r>   -7.8631    1.0000 </r>
       <r>   -7.2003    1.0000 </r>
       <r>   -6.0443    1.0000 </r>
       <r>   -5.6962    1.0000 </r>
       <r>   -3.8435    1.0000 </r>
       <r>   -3.4511    1.0000 </r>
       <r>   -1.9937    1.0000 </r>
       <r>   -1.2207    1.0000 </r>
       <r>   -0.9576    1.0000 </r>
       <r>   -0.8904    1.0000 </r>
       <r>    0.2180    0.9999 </r>
       <r>    0.4952    0.9548 </r>
       <r>    0.7212    0.5381 </r>
       <r>    0.9838    0.0390 </r>
       <r>    1.2917    0.0000 </r>
       <r>    2.3697    0.0000 </r>
       <r>    5.0279    0.0000 </r>
       <r>    5.0637    0.0000 </r>
       <r>    5.5680    0.0000 </r>
       <r>    6.2047    0.0000 </r>
      </set>
      <set comment="kpoint 6">
       <r>   -7.4347    1.0000 </r>
       <r>   -6.8145    1.0000 </r>
       <r>   -6.8145    1.0000 </r>
       <r>   -6.2842    1.0000 </r>
       <r>   -3.3375    1.0000 </r>
       <r>   -2.6973    1.0000 </r>
       <r>   -2.6973    1.0000 </r>
       <r>   -1.8723    1.0000 </r>
       <r>   -0.9952    1.0000 </r>
       <r>   -0.4713    1.0000 </r>
       <r>   -0.4713    1.0000 </r>
       <r>    0.1771    1.0000 </r>
       <r>    1.5193    0.0000 </r>
       <r>    1.5862    0.0000 </r>
       <r>    1.5862    0.0000 </r>
       <r>    2.4545    0.0000 </r>
       <r>    4.8413    0.0000 </r>
       <r>    5.4965    0.0000 </r>
       <r>    5.8300    0.0000 </r>
       <r>    5.8300    0.0000 </r>
      </set>
      <set comment="kpoint 7">
       <r>   -8.0912    1.0000 </r>
       <r>   -6.2343    1.0000 </r>
       <r>   -6.2343    1.0000 </r>
       <r>   -6.2343    1.0000 </r>
       <r>   -3.4198    1.0000 </r>
       <r>   -3.4198    1.0000 </r>
       <r>   -3.4198    1.0000 </r>
       <r>   -0.9051    1.0000 </r>
       <r>   -0.4919    1.0000 </r>
       <r>   -0.4919    1.0000 </r>
       <r>   -0.4919    1.0000 </r>
       <r>    0.9651    0.0517 </r>
       <r>    0.9651    0.0517 </r>
       <r>    0.9651    0.0517 </r>
       <r>    2.6629    0.0000 </r>
       <r>    2.6629    0.0000 </r>
       <r>    4.3806    0.0000 </r>
       <r>    4.3806    0.0000 </r>
       <r>    4.3806    0.0000 </r>
       <r>    4.4508    0.0000 </r>
      </set>
      <set comment="kpoint 8">
       <r>   -7.6551    1.0000 </r>
       <r>   -7.0218    1.0000 </r>
       <r>   -6.1043    1.0000 </r>
       <r>   -6.1043    1.0000 </r>
       <r>   -3.7695    1.0000 </r>
       <r>   -3.7695    1.0000 </r>
       <r>   -2.6990    1.0000 </r>
       <r>   -1.8742    1.0000 </r>
       <r>   -0.4323    1.0000 </r>
       <r>   -0.4323    1.0000 </r>
       <r>    0.6643    0.6906 </r>
       <r>    1.0337    0.0172 </r>
       <r>    1.0337    0.0172 </r>
       <r>    1.3961    0.0000 </r>
       <r>    1.9477    0.0000 </r>
       <r>    1.9938    0.0000 </r>
       <r>    4.8799    0.0000 </r>
       <r>    4.9792    0.0000 </r>
       <r>    5.2582    0.0000 </r>
       <r>    5.2582    0.0000 </r>
      </set>
      <set comment="kpoint 9">
       <r>   -7.2536    1.0000 </r>
       <r>   -6.7007    1.0000 </r>
       <r>   -6.7007    1.0000 </r>
       <r>   -6.3380    1.0000 </r>
       <r>   -3.8024    1.0000 </r>
       <r>   -3.3944    1.0000 </r>
       <r>   -3.3944    1.0000 </r>
       <r>   -2.7406    1.0000 </r>
       <r>    0.0683    1.0000 </r>
       <r>    0.5234    0.9324 </r>
       <r>    0.5234    0.9324 </r>
       <r>    1.3204    0.0000 </r>
       <r>    1.6638    0.0000 </r>
       <r>    1.7005    0.0000 </r>
       <r>    1.7005    0.0000 </r>
       <r>    2.3695    0.0000 </r>
       <r>    4.7867    0.0000 </r>
       <r>    4.9858    0.0000 </r>
       <r>    5.3544    0.0000 </r>
       <r>    5.3544    0.0000 </r>
      </set>
      <set comment="kpoint 10">
       <r>   -6.9287    1.0000 </r>
       <r>   -6.5650    1.0000 </r>
       <r>   -6.5650    1.0000 </r>
       <r>   -6.5650    1.0000 </r>
       <r>   -3.9048    1.0000 </r>
       <r>   -3.9048    1.0000 </r>
       <r>   -3.9048    1.0000 </r>
       <r>   -3.4982    1.0000 </r>
       <r>    1.3805    0.0000 </r>
       <r>    1.3805    0.0000 </r>
       <r>    1.3805    0.0000 </r>
       <r>    1.9106    0.0000 </r>
       <r>    1.9106    0.0000 </r>
       <r>    1.9106    0.0000 </r>
       <r>    2.1772    0.0000 </r>
       <r>    2.1772    0.0000 </r>
       <r>    4.0421    0.0000 </r>
       <r>    4.6705    0.0000 </r>
       <r>    4.6705    0.0000 </r>
       <r>    4.6705    0.0000 </r>
      </set>
     </set>
    </set>
   </array>
  </eigenvalues>
  <separator name="orbital magnetization" >
   <v name="MAGDIPOLOUT">      0.00000000      0.00000000      0.00000000</v>
  </separator>
  <dos>
   <i name="efermi">      0.73467935 </i>
   <total>
    <array>
     <dimension dim="1">gridpoints</dimension>
     <dimension dim="2">spin</dimension>
     <field>energy</field>
     <field>total</field>
     <field>integrated</field>
     <set>
      <set comment="spin 1">
       <r>   -10.7694     0.0000     0.0000 </r>
       <r>   -10.7062     0.0000     0.0000 </r>
       <r>   -10.6429     0.0000     0.0000 </r>
       <r>   -10.5797     0.0000     0.0000 </r>
       <r>   -10.5164     0.0000     0.0000 </r>
       <r>   -10.4532     0.0000     0.0000 </r>
       <r>   -10.3900     0.0000     0.0000 </r>
       <r>   -10.3267     0.0000     0.0000 </r>
       <r>   -10.2635     0.0000     0.0000 </r>
       <r>   -10.2002     0.0000     0.0000 </r>
       <r>   -10.1370     0.0000     0.0000 </r>
       <r>   -10.0737     0.0000     0.0000 </r>
       <r>   -10.0105     0.0000     0.0000 </r>
       <r>    -9.9472     0.0000     0.0000 </r>
       <r>    -9.8840     0.0000     0.0000 </r>
       <r>    -9.8207     0.0000     0.0000 </r>
       <r>    -9.7575     0.0000     0.0000 </r>
       <r>    -9.6942     0.0000     0.0000 </r>
       <r>    -9.6310     0.0000     0.0000 </r>
       <r>    -9.5677     0.0000     0.0000 </r>
       <r>    -9.5045     0.0000     0.0000 </r>
       <r>    -9.4412     0.0000     0.0000 </r>
       <r>    -9.3780     0.0000     0.0000 </r>
       <r>    -9.3148     0.0001     0.0000 </r>
       <r>    -9.2515     0.0003     0.0000 </r>
       <r>    -9.1883     0.0014     0.0001 </r>
       <r>    -9.1250     0.0052     0.0004 </r>
       <r>    -9.0618     0.0160     0.0015 </r>
       <r>    -8.9985     0.0406     0.0040 </r>
       <r>    -8.9353     0.0864     0.0095 </r>
       <r>    -8.8720     0.1569     0.0194 </r>
       <r>    -8.8088     0.2506     0.0353 </r>
       <r>    -8.7455     0.3645     0.0583 </r>
       <r>    -8.6823     0.4975     0.0898 </r>
       <r>    -8.6190     0.6422     0.1304 </r>
       <r>    -8.5558     0.7775     0.1796 </r>
       <r>    -8.4925     0.8792     0.2352 </r>
       <r>    -8.4293     0.9417     0.2947 </r>
       <r>    -8.3660     0.9816     0.3568 </r>
       <r>    -8.3028     1.0202     0.4213 </r>
       <r>    -8.2396     1.0730     0.4892 </r>
       <r>    -8.1763     1.1512     0.5620 </r>
       <r>    -8.1131     1.2595     0.6417 </r>
       <r>    -8.0498     1.3916     0.7297 </r>
       <r>    -7.9866     1.5333     0.8267 </r>
       <r>    -7.9233     1.6583     0.9316 </r>
       <r>    -7.8601     1.7241     1.0406 </r>
       <r>    -7.7968     1.6943     1.1477 </r>
       <r>    -7.7336     1.5804     1.2477 </r>
       <r>    -7.6703     1.4503     1.3394 </r>
       <r>    -7.6071     1.3905     1.4274 </r>
       <r>    -7.5438     1.4606     1.5198 </r>
       <r>    -7.4806     1.6678     1.6252 </r>
       <r>    -7.4173     1.9658     1.7496 </r>
       <r>    -7.3541     2.2774     1.8936 </r>
       <r>    -7.2908     2.5207     2.0530 </r>
       <r>    -7.2276     2.6263     2.2191 </r>
       <r>    -7.1644     2.5616     2.3811 </r>
       <r>    -7.1011     2.3678     2.5309 </r>
       <r>    -7.0379     2.1636     2.6677 </r>
       <r>    -6.9746     2.0832     2.7995 </r>
       <r>    -6.9114     2.1943     2.9383 </r>
       <r>    -6.8481     2.4571     3.0937 </r>
       <r>    -6.7849     2.7501     3.2676 </r>
       <r>    -6.7216     2.9465     3.4540 </r>
       <r>    -6.6584     2.9968     3.6435 </r>
       <r>    -6.5951     2.9592     3.8307 </r>
       <r>    -6.5319     2.9584     4.0178 </r>
       <r>    -6.4686     3.1018     4.2140 </r>
       <r>    -6.4054     3.4017     4.4291 </r>
       <r>    -6.3421     3.7563     4.6667 </r>
       <r>    -6.2789     4.0184     4.9209 </r>
       <r>    -6.2156     4.0978     5.1800 </r>
       <r>    -6.1524     3.9845     5.4320 </r>
       <r>    -6.0891     3.6847     5.6651 </r>
       <r>    -6.0259     3.1922     5.8670 </r>
       <r>    -5.9627     2.5593     6.0288 </r>
       <r>    -5.8994     1.9478     6.1520 </r>
       <r>    -5.8362     1.5467     6.2499 </r>
       <r>    -5.7729     1.4276     6.3401 </r>
       <r>    -5.7097     1.5056     6.4354 </r>
       <r>    -5.6464     1.6528     6.5399 </r>
       <r>    -5.5832     1.8352     6.6560 </r>
       <r>    -5.5199     2.1147     6.7897 </r>
       <r>    -5.4567     2.5217     6.9492 </r>
       <r>    -5.3934     2.9536     7.1360 </r>
       <r>    -5.3302     3.2121     7.3392 </r>
       <r>    -5.2669     3.1349     7.5375 </r>
       <r>    -5.2037     2.6989     7.7082 </r>
       <r>    -5.1404     2.0274     7.8364 </r>
       <r>    -5.0772     1.3158     7.9196 </r>
       <r>    -5.0139     0.7305     7.9658 </r>
       <r>    -4.9507     0.3438     7.9876 </r>
       <r>    -4.8875     0.1361     7.9962 </r>
       <r>    -4.8242     0.0450     7.9990 </r>
       <r>    -4.7610     0.0127     7.9998 </r>
       <r>    -4.6977     0.0047     8.0001 </r>
       <r>    -4.6345     0.0100     8.0007 </r>
       <r>    -4.5712     0.0394     8.0032 </r>
       <r>    -4.5080     0.1338     8.0117 </r>
       <r>    -4.4447     0.3749     8.0354 </r>
       <r>    -4.3815     0.8667     8.0902 </r>
       <r>    -4.3182     1.6553     8.1949 </r>
       <r>    -4.2550     2.6222     8.3608 </r>
       <r>    -4.1917     3.4730     8.5804 </r>
       <r>    -4.1285     3.9170     8.8282 </r>
       <r>    -4.0652     3.9149     9.0758 </r>
       <r>    -4.0020     3.7265     9.3114 </r>
       <r>    -3.9387     3.6631     9.5431 </r>
       <r>    -3.8755     3.7878     9.7827 </r>
       <r>    -3.8123     3.8809    10.0282 </r>
       <r>    -3.7490     3.7053    10.2625 </r>
       <r>    -3.6858     3.2879    10.4704 </r>
       <r>    -3.6225     2.9311    10.6558 </r>
       <r>    -3.5593     2.9403    10.8418 </r>
       <r>    -3.4960     3.3294    11.0524 </r>
       <r>    -3.4328     3.7791    11.2914 </r>
       <r>    -3.3695     3.8926    11.5376 </r>
       <r>    -3.3063     3.5198    11.7602 </r>
       <r>    -3.2430     2.8548    11.9408 </r>
       <r>    -3.1798     2.2380    12.0823 </r>
       <r>    -3.1165     1.8794    12.2012 </r>
       <r>    -3.0533     1.7693    12.3131 </r>
       <r>    -2.9900     1.8102    12.4276 </r>
       <r>    -2.9268     1.9705    12.5522 </r>
       <r>    -2.8635     2.2765    12.6962 </r>
       <r>    -2.8003     2.6781    12.8656 </r>
       <r>    -2.7371     2.9777    13.0539 </r>
       <r>    -2.6738     2.9415    13.2399 </r>
       <r>    -2.6106     2.4913    13.3975 </r>
       <r>    -2.5473     1.7773    13.5099 </r>
       <r>    -2.4841     1.0595    13.5769 </r>
       <r>    -2.4208     0.5304    13.6105 </r>
       <r>    -2.3576     0.2424    13.6258 </r>
       <r>    -2.2943     0.1628    13.6361 </r>
       <r>    -2.2311     0.2600    13.6525 </r>
       <r>    -2.1678     0.5347    13.6864 </r>
       <r>    -2.1046     0.9828    13.7485 </r>
       <r>    -2.0413     1.5321    13.8454 </r>
       <r>    -1.9781     2.0224    13.9733 </r>
       <r>    -1.9148     2.2680    14.1168 </r>
       <r>    -1.8516     2.1667    14.2538 </r>
       <r>    -1.7883     1.7712    14.3658 </r>
       <r>    -1.7251     1.2612    14.4456 </r>
       <r>    -1.6618     0.8398    14.4987 </r>
       <r>    -1.5986     0.6326    14.5387 </r>
       <r>    -1.5354     0.6559    14.5802 </r>
       <r>    -1.4721     0.8585    14.6345 </r>
       <r>    -1.4089     1.1912    14.7099 </r>
       <r>    -1.3456     1.6420    14.8137 </r>
       <r>    -1.2824     2.2106    14.9535 </r>
       <r>    -1.2191     2.8645    15.1347 </r>
       <r>    -1.1559     3.5381    15.3585 </r>
       <r>    -1.0926     4.1579    15.6214 </r>
       <r>    -1.0294     4.6361    15.9147 </r>
       <r>    -0.9661     4.8558    16.2218 </r>
       <r>    -0.9029     4.7248    16.5206 </r>
       <r>    -0.8396     4.2745    16.7910 </r>
       <r>    -0.7764     3.6868    17.0241 </r>
       <r>    -0.7131     3.2128    17.2273 </r>
       <r>    -0.6499     3.0639    17.4211 </r>
       <r>    -0.5866     3.3313    17.6318 </r>
       <r>    -0.5234     3.9223    17.8799 </r>
       <r>    -0.4602     4.5563    18.1681 </r>
       <r>    -0.3969     4.9081    18.4785 </r>
       <r>    -0.3337     4.8269    18.7838 </r>
       <r>    -0.2704     4.4230    19.0635 </r>
       <r>    -0.2072     3.9453    19.3130 </r>
       <r>    -0.1439     3.6110    19.5414 </r>
       <r>    -0.0807     3.5509    19.7660 </r>
       <r>    -0.0174     3.8247    20.0079 </r>
       <r>     0.0458     4.3853    20.2853 </r>
       <r>     0.1091     5.0205    20.6028 </r>
       <r>     0.1723     5.4251    20.9459 </r>
       <r>     0.2356     5.4283    21.2892 </r>
       <r>     0.2988     5.1679    21.6161 </r>
       <r>     0.3621     4.9925    21.9319 </r>
       <r>     0.4253     5.1467    22.2574 </r>
       <r>     0.4886     5.5485    22.6083 </r>
       <r>     0.5518     5.8856    22.9805 </r>
       <r>     0.6150     5.9090    23.3543 </r>
       <r>     0.6783     5.6055    23.7088 </r>
       <r>     0.7415     5.1386    24.0338 </r>
       <r>     0.8048     4.7147    24.3320 </r>
       <r>     0.8680     4.4940    24.6162 </r>
       <r>     0.9313     4.5116    24.9016 </r>
       <r>     0.9945     4.6330    25.1946 </r>
       <r>     1.0578     4.6567    25.4891 </r>
       <r>     1.1210     4.5132    25.7746 </r>
       <r>     1.1843     4.3247    26.0481 </r>
       <r>     1.2475     4.2419    26.3164 </r>
       <r>     1.3108     4.2743    26.5867 </r>
       <r>     1.3740     4.3256    26.8603 </r>
       <r>     1.4373     4.3575    27.1359 </r>
       <r>     1.5005     4.4478    27.4172 </r>
       <r>     1.5638     4.6692    27.7125 </r>
       <r>     1.6270     4.9543    28.0259 </r>
       <r>     1.6902     5.1213    28.3498 </r>
       <r>     1.7535     5.0307    28.6680 </r>
       <r>     1.8167     4.6904    28.9646 </r>
       <r>     1.8800     4.2019    29.2304 </r>
       <r>     1.9432     3.6420    29.4607 </r>
       <r>     2.0065     3.0415    29.6531 </r>
       <r>     2.0697     2.4624    29.8089 </r>
       <r>     2.1330     2.0408    29.9379 </r>
       <r>     2.1962     1.9188    30.0593 </r>
       <r>     2.2595     2.1294    30.1940 </r>
       <r>     2.3227     2.5363    30.3544 </r>
       <r>     2.3860     2.8932    30.5374 </r>
       <r>     2.4492     2.9987    30.7270 </r>
       <r>     2.5125     2.8271    30.9058 </r>
       <r>     2.5757     2.5089    31.0645 </r>
       <r>     2.6390     2.1858    31.2028 </r>
       <r>     2.7022     1.8993    31.3229 </r>
       <r>     2.7655     1.6093    31.4247 </r>
       <r>     2.8287     1.2831    31.5058 </r>
       <r>     2.8919     0.9494    31.5659 </r>
       <r>     2.9552     0.6826    31.6090 </r>
       <r>     3.0184     0.5473    31.6437 </r>
       <r>     3.0817     0.5492    31.6784 </r>
       <r>     3.1449     0.6260    31.7180 </r>
       <r>     3.2082     0.6918    31.7617 </r>
       <r>     3.2714     0.7012    31.8061 </r>
       <r>     3.3347     0.6770    31.8489 </r>
       <r>     3.3979     0.6769    31.8917 </r>
       <r>     3.4612     0.7408    31.9386 </r>
       <r>     3.5244     0.8699    31.9936 </r>
       <r>     3.5877     1.0367    32.0592 </r>
       <r>     3.6509     1.1938    32.1347 </r>
       <r>     3.7142     1.2840    32.2159 </r>
       <r>     3.7774     1.2753    32.2965 </r>
       <r>     3.8407     1.2035    32.3727 </r>
       <r>     3.9039     1.1688    32.4466 </r>
       <r>     3.9671     1.2600    32.5263 </r>
       <r>     4.0304     1.4695    32.6192 </r>
       <r>     4.0936     1.6958    32.7265 </r>
       <r>     4.1569     1.8512    32.8435 </r>
       <r>     4.2201     1.9594    32.9675 </r>
       <r>     4.2834     2.1265    33.1020 </r>
       <r>     4.3466     2.4162    33.2548 </r>
       <r>     4.4099     2.7903    33.4313 </r>
       <r>     4.4731     3.1823    33.6325 </r>
       <r>     4.5364     3.5825    33.8591 </r>
       <r>     4.5996     4.0047    34.1124 </r>
       <r>     4.6629     4.4006    34.3907 </r>
       <r>     4.7261     4.6794    34.6867 </r>
       <r>     4.7894     4.8210    34.9916 </r>
       <r>     4.8526     4.9127    35.3023 </r>
       <r>     4.9159     5.0387    35.6210 </r>
       <r>     4.9791     5.1599    35.9474 </r>
       <r>     5.0423     5.1457    36.2728 </r>
       <r>     5.1056     4.9347    36.5849 </r>
       <r>     5.1688     4.6250    36.8774 </r>
       <r>     5.2321     4.3723    37.1540 </r>
       <r>     5.2953     4.2303    37.4215 </r>
       <r>     5.3586     4.1348    37.6830 </r>
       <r>     5.4218     4.0111    37.9367 </r>
       <r>     5.4851     3.8270    38.1788 </r>
       <r>     5.5483     3.5565    38.4037 </r>
       <r>     5.6116     3.1791    38.6048 </r>
       <r>     5.6748     2.7426    38.7782 </r>
       <r>     5.7381     2.3628    38.9277 </r>
       <r>     5.8013     2.1202    39.0618 </r>
       <r>     5.8646     1.9859    39.1874 </r>
       <r>     5.9278     1.8768    39.3061 </r>
       <r>     5.9911     1.7590    39.4173 </r>
       <r>     6.0543     1.6656    39.5227 </r>
       <r>     6.1175     1.6231    39.6253 </r>
       <r>     6.1808     1.5853    39.7256 </r>
       <r>     6.2440     1.4578    39.8178 </r>
       <r>     6.3073     1.1903    39.8931 </r>
       <r>     6.3705     0.8312    39.9457 </r>
       <r>     6.4338     0.4865    39.9764 </r>
       <r>     6.4970     0.2362    39.9914 </r>
       <r>     6.5603     0.0947    39.9973 </r>
       <r>     6.6235     0.0312    39.9993 </r>
       <r>     6.6868     0.0085    39.9999 </r>
       <r>     6.7500     0.0019    40.0000 </r>
       <r>     6.8133     0.0003    40.0000 </r>
       <r>     6.8765     0.0001    40.0000 </r>
       <r>     6.9398     0.0000    40.0000 </r>
       <r>     7.0030     0.0000    40.0000 </r>
       <r>     7.0663     0.0000    40.0000 </r>
       <r>     7.1295     0.0000    40.0000 </r>
       <r>     7.1928     0.0000    40.0000 </r>
       <r>     7.2560     0.0000    40.0000 </r>
       <r>     7.3192     0.0000    40.0000 </r>
       <r>     7.3825     0.0000    40.0000 </r>
       <r>     7.4457     0.0000    40.0000 </r>
       <r>     7.5090     0.0000    40.0000 </r>
       <r>     7.5722     0.0000    40.0000 </r>
       <r>     7.6355     0.0000    40.0000 </r>
       <r>     7.6987     0.0000    40.0000 </r>
       <r>     7.7620     0.0000    40.0000 </r>
       <r>     7.8252     0.0000    40.0000 </r>
       <r>     7.8885     0.0000    40.0000 </r>
       <r>     7.9517     0.0000    40.0000 </r>
       <r>     8.0150     0.0000    40.0000 </r>
       <r>     8.0782     0.0000    40.0000 </r>
       <r>     8.1415     0.0000    40.0000 </r>
       <r>     8.2047     0.0000    40.0000 </r>
      </set>
     </set>
    </array>
   </total>
  </dos>
 </calculation>
 <structure name="finalpos" >
  <crystal>
   <varray name="basis" >
    <v>       5.76286300       0.00000000       0.00000000 </v>
    <v>       0.00000000       5.76286300       0.00000000 </v>
    <v>       0.00000000       0.00000000       5.76286300 </v>
   </varray>
   <i name="volume">    191.38808007 </i>
   <varray name="rec_basis" >
    <v>       0.17352486       0.00000000       0.00000000 </v>
    <v>       0.00000000       0.17352486       0.00000000 </v>
    <v>       0.00000000       0.00000000       0.17352486 </v>
   </varray>
  </crystal>
  <varray name="positions" >
   <v>       0.75000000       0.75000000       0.75000000 </v>
   <v>       0.50000000       0.00000000       0.00000000 </v>
   <v>       0.75000000       0.25000000       0.25000000 </v>
   <v>       0.50000000       0.50000000       0.50000000 </v>
   <v>       0.25000000       0.75000000       0.25000000 </v>
   <v>       0.00000000       0.00000000       0.50000000 </v>
   <v>       0.25000000       0.25000000       0.75000000 </v>
   <v>       0.00000000       0.50000000       0.00000000 </v>
  </varray>
 </structure>
</modeling>
