   8   8   0   0
  0.2392351E+02  0.5762863E-09  0.5762863E-09  0.5762863E-09  0.5000000E-15
  1.000000000000000E-004
  CAR 
 unknown system                          
      8.26578975    -10.85555759  301      0.75245990      1.00000000
    -10.856  0.0000E+00  0.0000E+00
    -10.792  0.0000E+00  0.0000E+00
    -10.728  0.0000E+00  0.0000E+00
    -10.664  0.0000E+00  0.0000E+00
    -10.601  0.0000E+00  0.0000E+00
    -10.537  0.0000E+00  0.0000E+00
    -10.473  0.0000E+00  0.0000E+00
    -10.409  0.0000E+00  0.0000E+00
    -10.346  0.0000E+00  0.0000E+00
    -10.282  0.0000E+00  0.0000E+00
    -10.218  0.0000E+00  0.0000E+00
    -10.154  0.0000E+00  0.0000E+00
    -10.091  0.0000E+00  0.0000E+00
    -10.027  0.2389E-17  0.1523E-18
     -9.963  0.1290E-15  0.8376E-17
     -9.899  0.4607E-14  0.3020E-15
     -9.836  0.1290E-12  0.8522E-14
     -9.772  0.2987E-11  0.1989E-12
     -9.708  0.5710E-10  0.3838E-11
     -9.645  0.9024E-09  0.6135E-10
     -9.581  0.1180E-07  0.8136E-09
     -9.517  0.1279E-06  0.8967E-08
     -9.453  0.1150E-05  0.8230E-07
     -9.390  0.8597E-05  0.6303E-06
     -9.326  0.5347E-04  0.4038E-05
     -9.262  0.2772E-03  0.2171E-04
     -9.198  0.1201E-02  0.9827E-04
     -9.135  0.4362E-02  0.3763E-03
     -9.071  0.1333E-01  0.1226E-02
     -9.007  0.3450E-01  0.3425E-02
     -8.943  0.7625E-01  0.8285E-02
     -8.880  0.1456E+00  0.1757E-01
     -8.816  0.2439E+00  0.3311E-01
     -8.752  0.3642E+00  0.5632E-01
     -8.688  0.4933E+00  0.8776E-01
     -8.625  0.6173E+00  0.1271E+00
     -8.561  0.7282E+00  0.1735E+00
     -8.497  0.8273E+00  0.2263E+00
     -8.434  0.9205E+00  0.2849E+00
     -8.370  0.1010E+01  0.3493E+00
     -8.306  0.1088E+01  0.4186E+00
     -8.242  0.1152E+01  0.4921E+00
     -8.179  0.1204E+01  0.5688E+00
     -8.115  0.1260E+01  0.6491E+00
     -8.051  0.1334E+01  0.7341E+00
     -7.987  0.1425E+01  0.8249E+00
     -7.924  0.1512E+01  0.9213E+00
     -7.860  0.1566E+01  0.1021E+01
     -7.796  0.1582E+01  0.1122E+01
     -7.732  0.1589E+01  0.1223E+01
     -7.669  0.1632E+01  0.1327E+01
     -7.605  0.1729E+01  0.1437E+01
     -7.541  0.1855E+01  0.1556E+01
     -7.477  0.1961E+01  0.1681E+01
     -7.414  0.2017E+01  0.1809E+01
     -7.350  0.2035E+01  0.1939E+01
     -7.286  0.2048E+01  0.2069E+01
     -7.223  0.2078E+01  0.2202E+01
     -7.159  0.2127E+01  0.2337E+01
     -7.095  0.2196E+01  0.2477E+01
     -7.031  0.2298E+01  0.2624E+01
     -6.968  0.2452E+01  0.2780E+01
     -6.904  0.2646E+01  0.2949E+01
     -6.840  0.2832E+01  0.3129E+01
     -6.776  0.2959E+01  0.3318E+01
     -6.713  0.3016E+01  0.3510E+01
     -6.649  0.3038E+01  0.3704E+01
     -6.585  0.3079E+01  0.3900E+01
     -6.521  0.3170E+01  0.4102E+01
     -6.458  0.3292E+01  0.4312E+01
     -6.394  0.3388E+01  0.4528E+01
     -6.330  0.3409E+01  0.4745E+01
     -6.266  0.3367E+01  0.4960E+01
     -6.203  0.3324E+01  0.5172E+01
     -6.139  0.3306E+01  0.5382E+01
     -6.075  0.3256E+01  0.5590E+01
     -6.011  0.3087E+01  0.5787E+01
     -5.948  0.2779E+01  0.5964E+01
     -5.884  0.2422E+01  0.6118E+01
     -5.820  0.2157E+01  0.6256E+01
     -5.757  0.2083E+01  0.6388E+01
     -5.693  0.2207E+01  0.6529E+01
     -5.629  0.2445E+01  0.6685E+01
     -5.565  0.2653E+01  0.6854E+01
     -5.502  0.2704E+01  0.7026E+01
     -5.438  0.2541E+01  0.7188E+01
     -5.374  0.2200E+01  0.7328E+01
     -5.310  0.1778E+01  0.7442E+01
     -5.247  0.1380E+01  0.7530E+01
     -5.183  0.1083E+01  0.7599E+01
     -5.119  0.9140E+00  0.7657E+01
     -5.055  0.8546E+00  0.7712E+01
     -4.992  0.8717E+00  0.7767E+01
     -4.928  0.9352E+00  0.7827E+01
     -4.864  0.1019E+01  0.7892E+01
     -4.800  0.1090E+01  0.7961E+01
     -4.737  0.1109E+01  0.8032E+01
     -4.673  0.1052E+01  0.8099E+01
     -4.609  0.9294E+00  0.8158E+01
     -4.546  0.7862E+00  0.8208E+01
     -4.482  0.6718E+00  0.8251E+01
     -4.418  0.6189E+00  0.8290E+01
     -4.354  0.6489E+00  0.8332E+01
     -4.291  0.7979E+00  0.8383E+01
     -4.227  0.1129E+01  0.8455E+01
     -4.163  0.1698E+01  0.8563E+01
     -4.099  0.2492E+01  0.8722E+01
     -4.036  0.3379E+01  0.8937E+01
     -3.972  0.4152E+01  0.9202E+01
     -3.908  0.4633E+01  0.9497E+01
     -3.844  0.4772E+01  0.9801E+01
     -3.781  0.4644E+01  0.1010E+02
     -3.717  0.4364E+01  0.1038E+02
     -3.653  0.4016E+01  0.1063E+02
     -3.589  0.3638E+01  0.1086E+02
     -3.526  0.3286E+01  0.1107E+02
     -3.462  0.3043E+01  0.1127E+02
     -3.398  0.2964E+01  0.1146E+02
     -3.334  0.3003E+01  0.1165E+02
     -3.271  0.3024E+01  0.1184E+02
     -3.207  0.2904E+01  0.1202E+02
     -3.143  0.2629E+01  0.1219E+02
     -3.080  0.2310E+01  0.1234E+02
     -3.016  0.2087E+01  0.1247E+02
     -2.952  0.2021E+01  0.1260E+02
     -2.888  0.2051E+01  0.1273E+02
     -2.825  0.2039E+01  0.1286E+02
     -2.761  0.1887E+01  0.1298E+02
     -2.697  0.1616E+01  0.1309E+02
     -2.633  0.1349E+01  0.1317E+02
     -2.570  0.1209E+01  0.1325E+02
     -2.506  0.1247E+01  0.1333E+02
     -2.442  0.1426E+01  0.1342E+02
     -2.378  0.1653E+01  0.1352E+02
     -2.315  0.1809E+01  0.1364E+02
     -2.251  0.1799E+01  0.1375E+02
     -2.187  0.1614E+01  0.1386E+02
     -2.123  0.1332E+01  0.1394E+02
     -2.060  0.1068E+01  0.1401E+02
     -1.996  0.9012E+00  0.1407E+02
     -1.932  0.8650E+00  0.1412E+02
     -1.869  0.9472E+00  0.1418E+02
     -1.805  0.1091E+01  0.1425E+02
     -1.741  0.1208E+01  0.1433E+02
     -1.677  0.1223E+01  0.1441E+02
     -1.614  0.1139E+01  0.1448E+02
     -1.550  0.1042E+01  0.1455E+02
     -1.486  0.1045E+01  0.1461E+02
     -1.422  0.1220E+01  0.1469E+02
     -1.359  0.1590E+01  0.1479E+02
     -1.295  0.2150E+01  0.1493E+02
     -1.231  0.2861E+01  0.1511E+02
     -1.167  0.3615E+01  0.1534E+02
     -1.104  0.4213E+01  0.1561E+02
     -1.040  0.4462E+01  0.1589E+02
     -0.976  0.4330E+01  0.1617E+02
     -0.912  0.4008E+01  0.1643E+02
     -0.849  0.3787E+01  0.1667E+02
     -0.785  0.3828E+01  0.1691E+02
     -0.721  0.4035E+01  0.1717E+02
     -0.658  0.4171E+01  0.1743E+02
     -0.594  0.4099E+01  0.1770E+02
     -0.530  0.3916E+01  0.1795E+02
     -0.466  0.3831E+01  0.1819E+02
     -0.403  0.3935E+01  0.1844E+02
     -0.339  0.4119E+01  0.1870E+02
     -0.275  0.4210E+01  0.1897E+02
     -0.211  0.4166E+01  0.1924E+02
     -0.148  0.4112E+01  0.1950E+02
     -0.084  0.4190E+01  0.1977E+02
     -0.020  0.4404E+01  0.2005E+02
      0.044  0.4629E+01  0.2034E+02
      0.107  0.4769E+01  0.2065E+02
      0.171  0.4849E+01  0.2095E+02
      0.235  0.4968E+01  0.2127E+02
      0.299  0.5166E+01  0.2160E+02
      0.362  0.5375E+01  0.2194E+02
      0.426  0.5489E+01  0.2229E+02
      0.490  0.5455E+01  0.2264E+02
      0.554  0.5318E+01  0.2298E+02
      0.617  0.5174E+01  0.2331E+02
      0.681  0.5106E+01  0.2363E+02
      0.745  0.5108E+01  0.2396E+02
      0.808  0.5091E+01  0.2428E+02
      0.872  0.4971E+01  0.2460E+02
      0.936  0.4772E+01  0.2491E+02
      1.000  0.4636E+01  0.2520E+02
      1.063  0.4686E+01  0.2550E+02
      1.127  0.4883E+01  0.2581E+02
      1.191  0.5044E+01  0.2613E+02
      1.255  0.4992E+01  0.2645E+02
      1.318  0.4687E+01  0.2675E+02
      1.382  0.4245E+01  0.2702E+02
      1.446  0.3861E+01  0.2727E+02
      1.510  0.3712E+01  0.2750E+02
      1.573  0.3863E+01  0.2775E+02
      1.637  0.4215E+01  0.2802E+02
      1.701  0.4558E+01  0.2831E+02
      1.765  0.4695E+01  0.2861E+02
      1.828  0.4546E+01  0.2890E+02
      1.892  0.4166E+01  0.2916E+02
      1.956  0.3683E+01  0.2940E+02
      2.019  0.3244E+01  0.2960E+02
      2.083  0.2963E+01  0.2979E+02
      2.147  0.2884E+01  0.2998E+02
      2.211  0.2958E+01  0.3017E+02
      2.274  0.3052E+01  0.3036E+02
      2.338  0.3015E+01  0.3055E+02
      2.402  0.2764E+01  0.3073E+02
      2.466  0.2334E+01  0.3088E+02
      2.529  0.1861E+01  0.3100E+02
      2.593  0.1497E+01  0.3109E+02
      2.657  0.1327E+01  0.3118E+02
      2.721  0.1323E+01  0.3126E+02
      2.784  0.1378E+01  0.3135E+02
      2.848  0.1381E+01  0.3144E+02
      2.912  0.1292E+01  0.3152E+02
      2.976  0.1143E+01  0.3159E+02
      3.039  0.9969E+00  0.3165E+02
      3.103  0.8897E+00  0.3171E+02
      3.167  0.8200E+00  0.3176E+02
      3.231  0.7676E+00  0.3181E+02
      3.294  0.7161E+00  0.3186E+02
      3.358  0.6619E+00  0.3190E+02
      3.422  0.6133E+00  0.3194E+02
      3.485  0.5892E+00  0.3198E+02
      3.549  0.6159E+00  0.3202E+02
      3.613  0.7134E+00  0.3206E+02
      3.677  0.8786E+00  0.3212E+02
      3.740  0.1080E+01  0.3219E+02
      3.804  0.1274E+01  0.3227E+02
      3.868  0.1433E+01  0.3236E+02
      3.932  0.1563E+01  0.3246E+02
      3.995  0.1692E+01  0.3257E+02
      4.059  0.1832E+01  0.3268E+02
      4.123  0.1966E+01  0.3281E+02
      4.187  0.2079E+01  0.3294E+02
      4.250  0.2194E+01  0.3308E+02
      4.314  0.2371E+01  0.3323E+02
      4.378  0.2653E+01  0.3340E+02
      4.442  0.3014E+01  0.3359E+02
      4.505  0.3348E+01  0.3381E+02
      4.569  0.3543E+01  0.3403E+02
      4.633  0.3581E+01  0.3426E+02
      4.696  0.3577E+01  0.3449E+02
      4.760  0.3722E+01  0.3473E+02
      4.824  0.4137E+01  0.3499E+02
      4.888  0.4759E+01  0.3529E+02
      4.951  0.5356E+01  0.3563E+02
      5.015  0.5673E+01  0.3600E+02
      5.079  0.5607E+01  0.3635E+02
      5.143  0.5258E+01  0.3669E+02
      5.206  0.4828E+01  0.3700E+02
      5.270  0.4478E+01  0.3728E+02
      5.334  0.4251E+01  0.3755E+02
      5.398  0.4093E+01  0.3781E+02
      5.461  0.3931E+01  0.3806E+02
      5.525  0.3738E+01  0.3830E+02
      5.589  0.3516E+01  0.3853E+02
      5.653  0.3252E+01  0.3873E+02
      5.716  0.2920E+01  0.3892E+02
      5.780  0.2543E+01  0.3908E+02
      5.844  0.2197E+01  0.3922E+02
      5.907  0.1953E+01  0.3935E+02
      5.971  0.1808E+01  0.3946E+02
      6.035  0.1705E+01  0.3957E+02
      6.099  0.1587E+01  0.3967E+02
      6.162  0.1429E+01  0.3976E+02
      6.226  0.1221E+01  0.3984E+02
      6.290  0.9679E+00  0.3990E+02
      6.354  0.6921E+00  0.3995E+02
      6.417  0.4355E+00  0.3997E+02
      6.481  0.2364E+00  0.3999E+02
      6.545  0.1090E+00  0.4000E+02
      6.609  0.4231E-01  0.4000E+02
      6.672  0.1370E-01  0.4000E+02
      6.736  0.3685E-02  0.4000E+02
      6.800  0.8194E-03  0.4000E+02
      6.864  0.1503E-03  0.4000E+02
      6.927  0.2268E-04  0.4000E+02
      6.991  0.2812E-05  0.4000E+02
      7.055  0.2862E-06  0.4000E+02
      7.119  0.2389E-07  0.4000E+02
      7.182  0.1635E-08  0.4000E+02
      7.246  0.9162E-10  0.4000E+02
      7.310  0.4205E-11  0.4000E+02
      7.373  0.1579E-12  0.4000E+02
      7.437  0.5046E-14  0.4000E+02
      7.501  0.0000E+00  0.4000E+02
      7.565  0.0000E+00  0.4000E+02
      7.628  0.0000E+00  0.4000E+02
      7.692  0.0000E+00  0.4000E+02
      7.756  0.0000E+00  0.4000E+02
      7.820  0.0000E+00  0.4000E+02
      7.883  0.0000E+00  0.4000E+02
      7.947  0.0000E+00  0.4000E+02
      8.011  0.0000E+00  0.4000E+02
      8.075  0.0000E+00  0.4000E+02
      8.138  0.0000E+00  0.4000E+02
      8.202  0.0000E+00  0.4000E+02
      8.266  0.0000E+00  0.4000E+02
