    8    8    1    1
  0.2392351E+02  0.5762863E-09  0.5762863E-09  0.5762863E-09  0.5000000E-15
  1.000000000000000E-004
  CAR 
 unknown system                          
   24   35   20
 
  0.3742002E-15  0.3742002E-15  0.3742002E-15  0.1371742E-02
   1       -8.855558
   2       -4.840892
   3       -4.840892
   4       -4.840892
   5       -4.840892
   6       -4.840892
   7       -4.840892
   8        0.230766
   9        0.230766
  10        0.230766
  11        0.230766
  12        0.230766
  13        0.230766
  14        3.600353
  15        3.600353
  16        3.600353
  17        3.600353
  18        3.600353
  19        3.600360
  20        3.678483
 
  0.1111111E+00  0.3742002E-15  0.3742002E-15  0.8230453E-02
   1       -8.804146
   2       -5.651769
   3       -4.823430
   4       -4.823430
   5       -4.823429
   6       -4.823429
   7       -3.960064
   8        0.069523
   9        0.069523
  10        0.069523
  11        0.069523
  12        0.286244
  13        0.286244
  14        3.048221
  15        3.372906
  16        3.372907
  17        3.468411
  18        3.865921
  19        3.900517
  20        3.900517
 
  0.2222222E+00  0.3742002E-15  0.3742002E-15  0.8230453E-02
   1       -8.650089
   2       -6.383445
   3       -4.777760
   4       -4.777760
   5       -4.777760
   6       -4.777760
   7       -3.020759
   8       -0.273960
   9       -0.273960
  10       -0.273960
  11       -0.273960
  12        0.454835
  13        0.454835
  14        2.058962
  15        2.775308
  16        2.775308
  17        3.463251
  18        4.270674
  19        4.665211
  20        4.665211
 
  0.3333333E+00  0.3742002E-15  0.3742002E-15  0.8230453E-02
   1       -8.393943
   2       -7.028142
   3       -4.722938
   4       -4.722938
   5       -4.722938
   6       -4.722938
   7       -2.038694
   8       -0.597914
   9       -0.597914
  10       -0.597914
  11       -0.597914
  12        0.731702
  13        0.731702
  14        1.032591
  15        2.155222
  16        2.155222
  17        3.579325
  18        4.572537
  19        4.815206
  20        5.705365
 
  0.4444444E+00  0.3742002E-15  0.3742002E-15  0.8230453E-02
   1       -8.036957
   2       -7.580952
   3       -4.685266
   4       -4.685266
   5       -4.685266
   6       -4.685266
   7       -1.026238
   8       -0.786233
   9       -0.786233
  10       -0.786233
  11       -0.786233
  12        0.001025
  13        1.113377
  14        1.113377
  15        1.592573
  16        1.592573
  17        3.810263
  18        4.146503
  19        5.484512
  20        6.199870
 
  0.1111111E+00  0.1111111E+00  0.3742002E-15  0.1646091E-01
   1       -8.752876
   2       -5.622019
   3       -5.622019
   4       -4.892549
   5       -4.725806
   6       -3.961971
   7       -3.961971
   8       -0.370687
   9        0.094159
  10        0.094159
  11        0.165308
  12        0.165308
  13        0.327599
  14        2.402609
  15        3.073651
  16        3.604564
  17        3.693264
  18        3.788668
  19        3.788669
  20        4.143278
 
  0.2222222E+00  0.1111111E+00  0.3742002E-15  0.3292181E-01
   1       -8.599283
   2       -6.345649
   3       -5.536895
   4       -4.950591
   5       -4.593550
   6       -3.976997
   7       -3.053885
   8       -0.788740
   9       -0.317036
  10       -0.085703
  11        0.236943
  12        0.262039
  13        0.385068
  14        1.542369
  15        2.483960
  16        3.173122
  17        3.801243
  18        4.085973
  19        4.522194
  20        4.586369
 
  0.3333333E+00  0.1111111E+00  0.3742002E-15  0.3292181E-01
   1       -8.343990
   2       -6.985457
   3       -5.410044
   4       -5.022993
   5       -4.434251
   6       -4.025008
   7       -2.119142
   8       -1.067488
   9       -0.728930
  10       -0.289032
  11        0.009085
  12        0.492997
  13        0.655850
  14        0.731045
  15        1.873461
  16        2.474308
  17        3.932150
  18        4.941336
  19        4.950373
  20        5.037533
 
  0.4444444E+00  0.1111111E+00  0.3742002E-15  0.3292181E-01
   1       -7.988459
   2       -7.534659
   3       -5.264323
   4       -5.127889
   5       -4.267809
   6       -4.123001
   7       -1.178806
   8       -1.149604
   9       -1.026843
  10       -0.343902
  11       -0.250616
  12       -0.229918
  13        0.857015
  14        1.202604
  15        1.321528
  16        1.792264
  17        4.175045
  18        4.519829
  19        5.670191
  20        6.068101
 
  0.2222222E+00  0.2222222E+00  0.3742002E-15  0.1646091E-01
   1       -8.447092
   2       -6.235135
   3       -6.235135
   4       -5.135397
   5       -4.380332
   6       -3.158656
   7       -3.158656
   8       -1.163388
   9       -0.225553
  10       -0.225553
  11        0.258112
  12        0.258113
  13        0.615202
  14        0.773105
  15        1.905526
  16        3.357980
  17        3.968122
  18        4.624906
  19        4.624907
  20        5.196543
 
  0.3333333E+00  0.2222222E+00  0.3742002E-15  0.3292181E-01
   1       -8.194591
   2       -6.858390
   3       -6.060660
   4       -5.349977
   5       -4.133550
   6       -3.339936
   7       -2.346261
   8       -1.339524
   9       -0.699528
  10       -0.007430
  11       -0.006813
  12        0.204873
  13        0.635153
  14        0.761841
  15        1.306122
  16        2.889129
  17        4.447205
  18        4.775245
  19        5.650346
  20        5.708462
 
  0.4444444E+00  0.2222222E+00  0.3742002E-15  0.3292181E-01
   1       -7.843563
   2       -7.396794
   3       -5.838197
   4       -5.591705
   5       -3.860918
   6       -3.585080
   7       -1.554090
   8       -1.304758
   9       -1.078462
  10       -0.779110
  11        0.280760
  12        0.327723
  13        0.458599
  14        0.770306
  15        1.408890
  16        2.152538
  17        5.029660
  18        5.378002
  19        5.384339
  20        6.184665
 
  0.3333333E+00  0.3333333E+00  0.3742002E-15  0.1646091E-01
   1       -7.947220
   2       -6.652578
   3       -6.652578
   4       -5.700922
   5       -3.804363
   6       -2.677314
   7       -2.677314
   8       -1.399694
   9       -0.697469
  10       -0.525521
  11       -0.525521
  12        0.718716
  13        0.865502
  14        0.865502
  15        1.070769
  16        2.909347
  17        4.406749
  18        5.683741
  19        5.866160
  20        5.866168
 
  0.4444444E+00  0.3333333E+00  0.3742002E-15  0.3292181E-01
   1       -7.604542
   2       -7.170668
   3       -6.378635
   4       -6.053431
   5       -3.442620
   6       -3.057735
   7       -2.027349
   8       -1.372025
   9       -1.264056
  10       -0.960679
  11       -0.221796
  12        0.198507
  13        1.028927
  14        1.159718
  15        1.636572
  16        2.397924
  17        4.955605
  18        5.920237
  19        5.947537
  20        6.119757
 
  0.4444444E+00  0.4444444E+00  0.3742002E-15  0.1646091E-01
   1       -7.275564
   2       -6.863114
   3       -6.863114
   4       -6.485079
   5       -2.996474
   6       -2.520681
   7       -2.520681
   8       -1.959616
   9       -1.051726
  10       -0.695230
  11       -0.695230
  12       -0.302165
  13        1.657749
  14        1.779169
  15        1.779169
  16        2.304737
  17        4.959735
  18        5.481602
  19        5.526654
  20        5.526654
 
  0.1111111E+00  0.1111111E+00  0.1111111E+00  0.1097394E-01
   1       -8.701770
   2       -5.597803
   3       -5.597803
   4       -5.597803
   5       -3.966605
   6       -3.966605
   7       -3.966605
   8       -0.296986
   9       -0.296985
  10       -0.296985
  11        0.383199
  12        0.383199
  13        0.383199
  14        1.864194
  15        3.338669
  16        3.338669
  17        3.732244
  18        3.732244
  19        3.732244
  20        4.662725
 
  0.2222222E+00  0.1111111E+00  0.1111111E+00  0.3292181E-01
   1       -8.548660
   2       -6.310280
   3       -5.531810
   4       -5.531810
   5       -3.984268
   6       -3.984268
   7       -3.098120
   8       -0.696854
   9       -0.696854
  10       -0.072157
  11        0.327874
  12        0.327874
  13        0.548190
  14        1.070050
  15        2.789423
  16        3.012721
  17        3.852974
  18        4.139685
  19        4.139685
  20        4.930951
 
  0.3333333E+00  0.1111111E+00  0.1111111E+00  0.3292181E-01
   1       -8.294351
   2       -6.943664
   3       -5.448396
   4       -5.448396
   5       -4.018382
   6       -4.018382
   7       -2.222616
   8       -0.972031
   9       -0.972031
  10        0.110011
  11        0.110011
  12        0.265679
  13        0.307323
  14        0.819677
  15        2.200695
  16        2.276130
  17        4.062088
  18        4.994866
  19        4.994871
  20        5.174143
 
  0.4444444E+00  0.1111111E+00  0.1111111E+00  0.3292181E-01
   1       -7.940380
   2       -7.489056
   3       -5.387270
   4       -5.387270
   5       -4.050743
   6       -4.050743
   7       -1.366540
   8       -1.098776
   9       -1.098776
  10       -0.540226
  11       -0.057347
  12       -0.057347
  13        0.842236
  14        1.192448
  15        1.515438
  16        1.657983
  17        4.361714
  18        4.744465
  19        5.925050
  20        6.117885
 
  0.2222222E+00  0.2222222E+00  0.1111111E+00  0.3292181E-01
   1       -8.397204
   2       -6.208218
   3       -6.208218
   4       -5.532015
   5       -3.995202
   6       -3.230910
   7       -3.230910
   8       -1.023113
   9       -0.425607
  10       -0.425607
  11        0.331134
  12        0.527636
  13        0.527636
  14        0.666286
  15        2.331155
  16        3.188914
  17        4.030984
  18        4.298821
  19        4.298821
  20        5.047370
 
  0.3333333E+00  0.2222222E+00  0.1111111E+00  0.6584362E-01
   1       -8.145902
   2       -6.821099
   3       -6.051969
   4       -5.575730
   5       -3.969838
   6       -3.436580
   7       -2.499636
   8       -1.157417
   9       -0.711795
  10       -0.403544
  11        0.004213
  12        0.422408
  13        0.694399
  14        0.876106
  15        1.721348
  16        2.749185
  17        4.507505
  18        4.557537
  19        5.152963
  20        5.376326
 
  0.4444444E+00  0.2222222E+00  0.1111111E+00  0.6584362E-01
   1       -7.796983
   2       -7.353552
   3       -5.866965
   4       -5.692985
   5       -3.861542
   6       -3.668181
   7       -1.799527
   8       -1.113820
   9       -1.109538
  10       -0.946200
  11        0.418320
  12        0.538079
  13        0.544591
  14        1.117335
  15        1.389666
  16        2.050057
  17        4.900813
  18        5.280077
  19        5.436944
  20        6.265790
 
  0.3333333E+00  0.3333333E+00  0.1111111E+00  0.3292181E-01
   1       -7.900412
   2       -6.624559
   3       -6.624559
   4       -5.797860
   5       -3.829697
   6       -2.869437
   7       -2.869437
   8       -1.150235
   9       -1.078079
  10       -0.342815
  11       -0.342815
  12        0.951601
  13        0.951601
  14        1.114790
  15        1.145287
  16        2.839454
  17        4.466941
  18        5.331074
  19        5.405026
  20        5.405026
 
  0.4444444E+00  0.3333333E+00  0.1111111E+00  0.6584362E-01
   1       -7.560901
   2       -7.132474
   3       -6.368777
   4       -6.079585
   5       -3.583373
   6       -3.250306
   7       -2.303319
   8       -1.712653
   9       -0.979346
  10       -0.691576
  11        0.095745
  12        0.593786
  13        1.089632
  14        1.206228
  15        1.643110
  16        2.359842
  17        5.005130
  18        5.625056
  19        5.693176
  20        5.967889
 
  0.4444444E+00  0.4444444E+00  0.1111111E+00  0.3292181E-01
   1       -7.237066
   2       -6.834573
   3       -6.834573
   4       -6.474904
   5       -3.224150
   6       -2.791745
   7       -2.791745
   8       -2.279369
   9       -0.712227
  10       -0.341510
  11       -0.341510
  12        0.093629
  13        1.685998
  14        1.799231
  15        1.799231
  16        2.300174
  17        4.994466
  18        5.400641
  19        5.516599
  20        5.516596
 
  0.2222222E+00  0.2222222E+00  0.2222222E+00  0.1097394E-01
   1       -8.247832
   2       -6.135120
   3       -6.135120
   4       -6.135120
   5       -3.420578
   6       -3.420578
   7       -3.420578
   8       -0.612708
   9       -0.612708
  10       -0.612708
  11       -0.378136
  12        0.819828
  13        0.819828
  14        0.819828
  15        2.786556
  16        2.786556
  17        4.217907
  18        4.217907
  19        4.217907
  20        4.557030
 
  0.3333333E+00  0.2222222E+00  0.2222222E+00  0.3292181E-01
   1       -8.000607
   2       -6.712987
   3       -6.041416
   4       -6.041416
   5       -3.645473
   6       -3.645473
   7       -2.859548
   8       -1.071703
   9       -0.666156
  10       -0.666156
  11        0.026521
  12        0.874750
  13        0.874750
  14        1.071779
  15        2.304598
  16        2.452790
  17        4.518918
  18        4.684826
  19        4.684827
  20        4.827928
 
  0.4444444E+00  0.2222222E+00  0.2222222E+00  0.3292181E-01
   1       -7.658424
   2       -7.226402
   3       -5.972027
   4       -5.972027
   5       -3.798184
   6       -3.798184
   7       -2.301591
   8       -1.712005
   9       -0.653943
  10       -0.653943
  11        0.813571
  12        0.813571
  13        0.816720
  14        1.413613
  15        1.667700
  16        1.832829
  17        4.894408
  18        5.157159
  19        5.585253
  20        5.585255
 
  0.3333333E+00  0.3333333E+00  0.2222222E+00  0.3292181E-01
   1       -7.761056
   2       -6.548299
   3       -6.548299
   4       -6.070311
   5       -3.807401
   6       -3.266096
   7       -3.266096
   8       -1.725330
   9       -0.524657
  10        0.004428
  11        0.004428
  12        1.188337
  13        1.188337
  14        1.244019
  15        1.884326
  16        2.645152
  17        4.639444
  18        4.649780
  19        4.958202
  20        4.958202
 
  0.4444444E+00  0.3333333E+00  0.2222222E+00  0.6584362E-01
   1       -7.432084
   2       -7.022444
   3       -6.354333
   4       -6.178044
   5       -3.802600
   6       -3.606266
   7       -2.826534
   8       -2.314416
   9       -0.321437
  10       -0.119506
  11        0.707183
  12        1.277065
  13        1.334541
  14        1.346770
  15        1.656633
  16        2.239256
  17        5.039372
  18        5.132487
  19        5.215517
  20        5.702134
 
  0.4444444E+00  0.4444444E+00  0.2222222E+00  0.3292181E-01
   1       -7.126340
   2       -6.757192
   3       -6.757192
   4       -6.459444
   5       -3.622662
   6       -3.283669
   7       -3.283669
   8       -2.847088
   9        0.030211
  10        0.389921
  11        0.389921
  12        0.873157
  13        1.766502
  14        1.852540
  15        1.852540
  16        2.280606
  17        5.037892
  18        5.050082
  19        5.346519
  20        5.346520
 
  0.3333333E+00  0.3333333E+00  0.3333333E+00  0.1097394E-01
   1       -7.533428
   2       -6.450280
   3       -6.450280
   4       -6.450280
   5       -3.641505
   6       -3.641505
   7       -3.641505
   8       -2.350696
   9        0.294092
  10        0.294092
  11        0.294092
  12        1.452697
  13        1.452697
  14        1.452697
  15        2.361773
  16        2.361773
  17        4.195982
  18        4.875818
  19        4.875818
  20        4.875818
 
  0.4444444E+00  0.3333333E+00  0.3333333E+00  0.3292181E-01
   1       -7.225619
   2       -6.854446
   3       -6.377783
   4       -6.377783
   5       -3.866457
   6       -3.866457
   7       -3.329973
   8       -2.892971
   9        0.458981
  10        0.458981
  11        1.179901
  12        1.583612
  13        1.583612
  14        1.725365
  15        1.996039
  16        2.040196
  17        4.507301
  18        4.944379
  19        5.194247
  20        5.194243
 
  0.4444444E+00  0.4444444E+00  0.3333333E+00  0.3292181E-01
   1       -6.957461
   2       -6.657698
   3       -6.657698
   4       -6.481338
   5       -3.908056
   6       -3.712801
   7       -3.712801
   8       -3.373306
   9        0.899771
  10        1.176499
  11        1.176499
  12        1.685315
  13        1.884927
  14        1.924404
  15        1.924404
  16        2.231544
  17        4.416317
  18        4.850970
  19        4.850970
  20        4.897507
 
  0.4444444E+00  0.4444444E+00  0.4444444E+00  0.1097394E-01
   1       -6.760018
   2       -6.583901
   3       -6.583901
   4       -6.583901
   5       -3.961506
   6       -3.961506
   7       -3.961506
   8       -3.766839
   9        1.729338
  10        1.729338
  11        1.729338
  12        2.019955
  13        2.019955
  14        2.019955
  15        2.142937
  16        2.142937
  17        4.014375
  18        4.368475
  19        4.368476
  20        4.368476
