       N       E                     dE             d eps       ncg     rms          rms(c)
DAV:   1     0.110616906578E+02    0.11062E+02   -0.41228E+03  1420   0.315E+02
DAV:   2    -0.205913939577E+02   -0.31653E+02   -0.31199E+02  2140   0.592E+01
DAV:   3    -0.210221916416E+02   -0.43080E+00   -0.43026E+00  1600   0.933E+00
DAV:   4    -0.210229883849E+02   -0.79674E-03   -0.79664E-03  2540   0.350E-01
DAV:   5    -0.210229884421E+02   -0.57271E-07   -0.57263E-07  1580   0.264E-03    0.280E+00
RMM:   6    -0.209369715266E+02    0.86017E-01   -0.77686E-03  1400   0.649E-01    0.174E+00
RMM:   7    -0.208904104813E+02    0.46561E-01   -0.22239E-02  1402   0.106E+00    0.859E-02
RMM:   8    -0.208907152761E+02   -0.30479E-03   -0.43656E-04  1204   0.974E-02    0.196E-02
RMM:   9    -0.208907549728E+02   -0.39697E-04   -0.81467E-05   902   0.465E-02
   1 F= -.20890755E+02 E0= -.20839650E+02  d E =-.102210E+00
