<?xml version="1.0" encoding="ISO-8859-1"?>
<modeling>
 <generator>
  <i name="program" type="string">vasp </i>
  <i name="version" type="string">5.3.3  </i>
  <i name="subversion" type="string">18Dez12 (build Dec 13 2014 13:36:02) complex                          parallel </i>
  <i name="platform" type="string">LinuxIFC </i>
  <i name="date" type="string">2018 11 27 </i>
  <i name="time" type="string">23:29:35 </i>
 </generator>
 <incar>
  <i type="string" name="PREC">normal</i>
  <i type="string" name="ALGO"> Fast</i>
  <i type="int" name="ISPIN">     1</i>
  <i type="int" name="IBRION">    -1</i>
  <i type="int" name="NSW">     0</i>
  <i type="int" name="ISYM">     1</i>
  <i type="int" name="ISMEAR">     0</i>
  <i name="SIGMA">      0.20000000</i>
  <i type="logical" name="LWAVE"> F  </i>
  <i type="logical" name="LCHARG"> F  </i>
 </incar>
 <kpoints>
  <generation param="Monkhorst-Pack">
   <v type="int" name="divisions">       9        9        9 </v>
   <v name="usershift">      0.00000000       0.00000000       0.00000000 </v>
   <v name="genvec1">      0.11111111       0.00000000       0.00000000 </v>
   <v name="genvec2">      0.00000000       0.11111111       0.00000000 </v>
   <v name="genvec3">      0.00000000       0.00000000       0.11111111 </v>
   <v name="shift">      0.00000000       0.00000000       0.00000000 </v>
  </generation>
  <varray name="kpointlist" >
   <v>       0.00000000       0.00000000       0.00000000 </v>
   <v>       0.11111111       0.00000000       0.00000000 </v>
   <v>       0.22222222       0.00000000       0.00000000 </v>
   <v>       0.33333333       0.00000000       0.00000000 </v>
   <v>       0.44444444       0.00000000       0.00000000 </v>
   <v>       0.11111111       0.11111111       0.00000000 </v>
   <v>       0.22222222       0.11111111       0.00000000 </v>
   <v>       0.33333333       0.11111111       0.00000000 </v>
   <v>       0.44444444       0.11111111       0.00000000 </v>
   <v>       0.22222222       0.22222222       0.00000000 </v>
   <v>       0.33333333       0.22222222       0.00000000 </v>
   <v>       0.44444444       0.22222222       0.00000000 </v>
   <v>       0.33333333       0.33333333       0.00000000 </v>
   <v>       0.44444444       0.33333333       0.00000000 </v>
   <v>       0.44444444       0.44444444       0.00000000 </v>
   <v>       0.11111111       0.11111111       0.11111111 </v>
   <v>       0.22222222       0.11111111       0.11111111 </v>
   <v>       0.33333333       0.11111111       0.11111111 </v>
   <v>       0.44444444       0.11111111       0.11111111 </v>
   <v>       0.22222222       0.22222222       0.11111111 </v>
   <v>       0.33333333       0.22222222       0.11111111 </v>
   <v>       0.44444444       0.22222222       0.11111111 </v>
   <v>       0.33333333       0.33333333       0.11111111 </v>
   <v>       0.44444444       0.33333333       0.11111111 </v>
   <v>       0.44444444       0.44444444       0.11111111 </v>
   <v>       0.22222222       0.22222222       0.22222222 </v>
   <v>       0.33333333       0.22222222       0.22222222 </v>
   <v>       0.44444444       0.22222222       0.22222222 </v>
   <v>       0.33333333       0.33333333       0.22222222 </v>
   <v>       0.44444444       0.33333333       0.22222222 </v>
   <v>       0.44444444       0.44444444       0.22222222 </v>
   <v>       0.33333333       0.33333333       0.33333333 </v>
   <v>       0.44444444       0.33333333       0.33333333 </v>
   <v>       0.44444444       0.44444444       0.33333333 </v>
   <v>       0.44444444       0.44444444       0.44444444 </v>
  </varray>
  <varray name="weights" >
   <v>       0.00137174 </v>
   <v>       0.00823045 </v>
   <v>       0.00823045 </v>
   <v>       0.00823045 </v>
   <v>       0.00823045 </v>
   <v>       0.01646091 </v>
   <v>       0.03292181 </v>
   <v>       0.03292181 </v>
   <v>       0.03292181 </v>
   <v>       0.01646091 </v>
   <v>       0.03292181 </v>
   <v>       0.03292181 </v>
   <v>       0.01646091 </v>
   <v>       0.03292181 </v>
   <v>       0.01646091 </v>
   <v>       0.01097394 </v>
   <v>       0.03292181 </v>
   <v>       0.03292181 </v>
   <v>       0.03292181 </v>
   <v>       0.03292181 </v>
   <v>       0.06584362 </v>
   <v>       0.06584362 </v>
   <v>       0.03292181 </v>
   <v>       0.06584362 </v>
   <v>       0.03292181 </v>
   <v>       0.01097394 </v>
   <v>       0.03292181 </v>
   <v>       0.03292181 </v>
   <v>       0.03292181 </v>
   <v>       0.06584362 </v>
   <v>       0.03292181 </v>
   <v>       0.01097394 </v>
   <v>       0.03292181 </v>
   <v>       0.03292181 </v>
   <v>       0.01097394 </v>
  </varray>
 </kpoints>
 <parameters>
  <separator name="general" >
   <i type="string" name="SYSTEM">unknown system</i>
   <i type="logical" name="LCOMPAT"> F  </i>
  </separator>
  <separator name="electronic" >
   <i type="string" name="PREC">normal</i>
   <i name="ENMAX">    134.67800000</i>
   <i name="ENAUG">    320.26400000</i>
   <i name="EDIFF">      0.00010000</i>
   <i type="int" name="IALGO">    68</i>
   <i type="int" name="IWAVPR">    10</i>
   <i type="int" name="NBANDS">    20</i>
   <i name="NELECT">     24.00000000</i>
   <i type="int" name="TURBO">     0</i>
   <i type="int" name="IRESTART">     0</i>
   <i type="int" name="NREBOOT">     0</i>
   <i type="int" name="NMIN">     0</i>
   <i name="EREF">      0.00000000</i>
   <separator name="electronic smearing" >
    <i type="int" name="ISMEAR">     0</i>
    <i name="SIGMA">      0.20000000</i>
    <i name="KSPACING">      0.50000000</i>
    <i type="logical" name="KGAMMA"> T  </i>
   </separator>
   <separator name="electronic projectors" >
    <i type="logical" name="LREAL"> F  </i>
    <v name="ROPT">      0.00000000</v>
    <i type="int" name="LMAXPAW">  -100</i>
    <i type="int" name="LMAXMIX">     2</i>
    <i type="logical" name="NLSPLINE"> F  </i>
   </separator>
   <separator name="electronic startup" >
    <i type="int" name="ISTART">     0</i>
    <i type="int" name="ICHARG">     2</i>
    <i type="int" name="INIWAV">     1</i>
   </separator>
   <separator name="electronic spin" >
    <i type="int" name="ISPIN">     1</i>
    <i type="logical" name="LNONCOLLINEAR"> F  </i>
    <v name="MAGMOM">      1.00000000      1.00000000      1.00000000      1.00000000      1.00000000      1.00000000      1.00000000      1.00000000</v>
    <i name="NUPDOWN">     -1.00000000</i>
    <i type="logical" name="LSORBIT"> F  </i>
    <v name="SAXIS">      0.00000000      0.00000000      1.00000000</v>
    <i type="logical" name="LSPIRAL"> F  </i>
    <v name="QSPIRAL">      0.00000000      0.00000000      0.00000000</v>
    <i type="logical" name="LZEROZ"> F  </i>
   </separator>
   <separator name="electronic exchange-correlation" >
    <i type="logical" name="LASPH"> F  </i>
    <i type="logical" name="LMETAGGA"> F  </i>
   </separator>
   <separator name="electronic convergence" >
    <i type="int" name="NELM">    60</i>
    <i type="int" name="NELMDL">    -5</i>
    <i type="int" name="NELMIN">     2</i>
    <i name="ENINI">    134.67800000</i>
    <separator name="electronic convergence detail" >
     <i type="logical" name="LDIAG"> T  </i>
     <i type="logical" name="LSUBROT"> T  </i>
     <i name="WEIMIN">      0.00000000</i>
     <i name="EBREAK">      0.00000125</i>
     <i name="DEPER">      0.30000000</i>
     <i type="int" name="NRMM">     4</i>
     <i name="TIME">      0.40000000</i>
    </separator>
   </separator>
   <separator name="electronic mixer" >
    <i name="AMIX">      0.40000000</i>
    <i name="BMIX">      1.00000000</i>
    <i name="AMIN">      0.10000000</i>
    <i name="AMIX_MAG">      1.60000000</i>
    <i name="BMIX_MAG">      1.00000000</i>
    <separator name="electronic mixer details" >
     <i type="int" name="IMIX">     4</i>
     <i type="int" name="MAXMIX">   -45</i>
     <i name="WC">    100.00000000</i>
     <i type="int" name="INIMIX">     1</i>
     <i type="int" name="MIXPRE">     1</i>
     <i type="int" name="MREMOVE">     5</i>
    </separator>
   </separator>
   <separator name="electronic dipolcorrection" >
    <i type="logical" name="LDIPOL"> F  </i>
    <i type="logical" name="LMONO"> F  </i>
    <i type="int" name="IDIPOL">     0</i>
    <i name="EPSILON">      1.00000000</i>
    <v name="DIPOL">   -100.00000000   -100.00000000   -100.00000000</v>
    <i name="EFIELD">      0.00000000</i>
   </separator>
  </separator>
  <separator name="grids" >
   <i type="int" name="NGX">    16</i>
   <i type="int" name="NGY">    16</i>
   <i type="int" name="NGZ">    16</i>
   <i type="int" name="NGXF">    32</i>
   <i type="int" name="NGYF">    32</i>
   <i type="int" name="NGZF">    32</i>
   <i type="logical" name="ADDGRID"> F  </i>
  </separator>
  <separator name="ionic" >
   <i type="int" name="NSW">     0</i>
   <i type="int" name="IBRION">    -1</i>
   <i type="int" name="ISIF">     2</i>
   <i name="PSTRESS">      0.00000000</i>
   <i name="EDIFFG">      0.00100000</i>
   <i type="int" name="NFREE">     0</i>
   <i name="POTIM">      0.50000000</i>
   <i name="SMASS">     -3.00000000</i>
   <i name="SCALEE">      1.00000000</i>
  </separator>
  <separator name="ionic md" >
   <i name="TEBEG">      0.00010000</i>
   <i name="TEEND">      0.00010000</i>
   <i type="int" name="NBLOCK">     1</i>
   <i type="int" name="KBLOCK">     1</i>
   <i type="int" name="NPACO">   256</i>
   <i name="APACO">     16.00000000</i>
  </separator>
  <separator name="symmetry" >
   <i type="int" name="ISYM">     1</i>
   <i name="SYMPREC">      0.00001000</i>
  </separator>
  <separator name="dos" >
   <i type="logical" name="LORBIT"> F  </i>
   <v name="RWIGS">     -1.00000000</v>
   <i type="int" name="NEDOS">   301</i>
   <i name="EMIN">     10.00000000</i>
   <i name="EMAX">    -10.00000000</i>
   <i name="EFERMI">      0.00000000</i>
  </separator>
  <separator name="writing" >
   <i type="int" name="NWRITE">     2</i>
   <i type="logical" name="LWAVE"> F  </i>
   <i type="logical" name="LCHARG"> F  </i>
   <i type="logical" name="LPARD"> F  </i>
   <i type="logical" name="LVTOT"> F  </i>
   <i type="logical" name="LVHAR"> F  </i>
   <i type="logical" name="LELF"> F  </i>
   <i type="logical" name="LOPTICS"> F  </i>
   <v name="STM">      0.00000000      0.00000000      0.00000000      0.00000000      0.00000000      0.00000000      0.00000000</v>
  </separator>
  <separator name="performance" >
   <i type="int" name="NPAR">    20</i>
   <i type="int" name="NSIM">     4</i>
   <i type="int" name="NBLK">    -1</i>
   <i type="logical" name="LPLANE"> T  </i>
   <i type="logical" name="LSCALAPACK"> T  </i>
   <i type="logical" name="LSCAAWARE"> F  </i>
   <i type="logical" name="LSCALU"> F  </i>
   <i type="logical" name="LASYNC"> F  </i>
   <i type="logical" name="LORBITALREAL"> F  </i>
  </separator>
  <separator name="miscellaneous" >
   <i type="int" name="IDIOT">     3</i>
   <i type="logical" name="LMUSIC"> F  </i>
   <v name="POMASS">     69.72300000</v>
   <v name="DARWINR">      0.00000000</v>
   <v name="DARWINV">      1.00000000</v>
   <i type="logical" name="LCORR"> T  </i>
  </separator>
  <i type="logical" name="GGA_COMPAT"> T  </i>
  <i type="logical" name="LBERRY"> F  </i>
  <i type="int" name="ICORELEVEL">     0</i>
  <i type="logical" name="LDAU"> F  </i>
  <i type="int" name="I_CONSTRAINED_M">     0</i>
  <separator name="electronic exchange-correlation" >
   <i type="string" name="GGA">--</i>
   <i type="int" name="VOSKOWN">     0</i>
   <i type="logical" name="LHFCALC"> F  </i>
   <i type="string" name="PRECFOCK"></i>
   <i type="logical" name="LSYMGRAD"> F  </i>
   <i type="logical" name="LHFONE"> F  </i>
   <i type="logical" name="LRHFCALC"> F  </i>
   <i type="logical" name="LTHOMAS"> F  </i>
   <i type="logical" name="LMODELHF"> F  </i>
   <i name="ENCUT4O">     -1.00000000</i>
   <i type="int" name="EXXOEP">     0</i>
   <i type="int" name="FOURORBIT">     0</i>
   <i name="AEXX">      0.00000000</i>
   <i name="HFALPHA">      0.00000000</i>
   <i name="MCALPHA">      0.00000000</i>
   <i name="ALDAX">      1.00000000</i>
   <i name="AGGAX">      1.00000000</i>
   <i name="ALDAC">      1.00000000</i>
   <i name="AGGAC">      1.00000000</i>
   <i type="int" name="NKREDX">     1</i>
   <i type="int" name="NKREDY">     1</i>
   <i type="int" name="NKREDZ">     1</i>
   <i type="logical" name="SHIFTRED"> F  </i>
   <i type="logical" name="ODDONLY"> F  </i>
   <i type="logical" name="EVENONLY"> F  </i>
   <i type="int" name="LMAXFOCK">     0</i>
   <i type="int" name="NMAXFOCKAE">     0</i>
   <i type="logical" name="LFOCKAEDFT"> F  </i>
   <i name="HFSCREEN">      0.00000000</i>
   <i name="HFSCREENC">      0.00000000</i>
   <i type="int" name="NBANDSGWLOW">     0</i>
  </separator>
  <separator name="vdW DFT" >
   <i type="logical" name="LUSE_VDW"> F  </i>
   <i name="Zab_VDW">     -0.84910000</i>
   <i name="PARAM1">      0.12340000</i>
   <i name="PARAM2">      1.00000000</i>
   <i name="PARAM3">      0.00000000</i>
  </separator>
  <separator name="model GW" >
   <i type="int" name="MODEL_GW">     0</i>
   <i name="MODEL_EPS0">     14.35410601</i>
   <i name="MODEL_ALPHA">      1.00000000</i>
  </separator>
  <separator name="linear response parameters" >
   <i type="logical" name="LEPSILON"> F  </i>
   <i type="logical" name="LRPA"> F  </i>
   <i type="logical" name="LNABLA"> F  </i>
   <i type="logical" name="LVEL"> F  </i>
   <i type="int" name="KINTER">     0</i>
   <i name="CSHIFT">      0.10000000</i>
   <i name="OMEGAMAX">     -1.00000000</i>
   <i name="DEG_THRESHOLD">      0.00200000</i>
  </separator>
  <separator name="orbital magnetization" >
   <i type="logical" name="NUCIND"> F  </i>
   <v name="MAGPOS">      0.00000000      0.00000000      0.00000000</v>
   <i type="logical" name="LNICSALL"> T  </i>
   <i type="logical" name="ORBITALMAG"> F  </i>
   <i type="logical" name="LMAGBLOCH"> F  </i>
   <i type="logical" name="LCHIMAG"> F  </i>
   <i type="logical" name="LGAUGE"> T  </i>
   <i type="int" name="MAGATOM">     0</i>
   <v name="MAGDIPOL">      0.00000000      0.00000000      0.00000000</v>
   <v name="AVECCONST">      0.00000000      0.00000000      0.00000000</v>
  </separator>
  <separator name="response functions" >
   <i type="logical" name="LADDER"> F  </i>
   <i type="logical" name="LFXC"> F  </i>
   <i type="logical" name="LHARTREE"> T  </i>
   <i type="int" name="IBSE">     0</i>
   <i type="logical" name="LTCTE"> F  </i>
   <i type="logical" name="LTETE"> F  </i>
   <i type="logical" name="LTRIPLET"> F  </i>
   <i type="logical" name="LFXCEPS"> F  </i>
   <i type="logical" name="L2ORDER"> F  </i>
   <i type="logical" name="LUSEW"> F  </i>
   <i name="ENCUTGW">     -2.00000000</i>
   <i name="ENCUTGWSOFT">     -2.00000000</i>
   <i name="ENCUTLF">     -1.00000000</i>
   <i type="int" name="LMAXMP2">    -1</i>
   <i name="SCISSOR">      0.00000000</i>
   <i type="int" name="NOMEGA">     0</i>
   <i type="int" name="NOMEGAR">     0</i>
   <i type="int" name="NBANDSGW">    -1</i>
   <i type="int" name="NBANDSO">    -1</i>
   <i type="int" name="NBANDSV">    -1</i>
   <i type="int" name="NELM">     1</i>
   <i type="int" name="DIM">     3</i>
   <i type="int" name="ANTIRES">     0</i>
   <i name="OMEGAMAX">    -30.00000000</i>
   <i name="OMEGATL">   -200.00000000</i>
   <i type="int" name="OMEGAGRID">     0</i>
   <i name="CSHIFT">     -0.10000000</i>
   <i type="logical" name="SELFENERGY"> F  </i>
   <i type="logical" name="LSPECTRAL"> F  </i>
   <i type="logical" name="ODDONLYGW"> F  </i>
   <i type="logical" name="EVENONLYGW"> F  </i>
   <i type="int" name="NKREDLFX">     1</i>
   <i type="int" name="NKREDLFY">     1</i>
   <i type="int" name="NKREDLFZ">     1</i>
   <i type="int" name="MAXMEM">  1800</i>
   <i type="int" name="TELESCOPE">     0</i>
  </separator>
 </parameters>
 <atominfo>
  <atoms>       8 </atoms>
  <types>       1 </types>
  <array name="atoms" >
   <dimension dim="1">ion</dimension>
   <field type="string">element</field>
   <field type="int">atomtype</field>
   <set>
    <rc><c>Ga</c><c>   1</c></rc>
    <rc><c>Ga</c><c>   1</c></rc>
    <rc><c>Ga</c><c>   1</c></rc>
    <rc><c>Ga</c><c>   1</c></rc>
    <rc><c>Ga</c><c>   1</c></rc>
    <rc><c>Ga</c><c>   1</c></rc>
    <rc><c>Ga</c><c>   1</c></rc>
    <rc><c>Ga</c><c>   1</c></rc>
   </set>
  </array>
  <array name="atomtypes" >
   <dimension dim="1">type</dimension>
   <field type="int">atomspertype</field>
   <field type="string">element</field>
   <field>mass</field>
   <field>valence</field>
   <field type="string">pseudopotential</field>
   <set>
    <rc><c>   8</c><c>Ga</c><c>     69.72300000</c><c>      3.00000000</c><c> PAW_PBE Ga 08Apr2002                   </c></rc>
   </set>
  </array>
 </atominfo>
 <structure name="initialpos" >
  <crystal>
   <varray name="basis" >
    <v>       5.76286300       0.00000000       0.00000000 </v>
    <v>       0.00000000       5.76286300       0.00000000 </v>
    <v>       0.00000000       0.00000000       5.76286300 </v>
   </varray>
   <i name="volume">    191.38808007 </i>
   <varray name="rec_basis" >
    <v>       0.17352486       0.00000000       0.00000000 </v>
    <v>       0.00000000       0.17352486       0.00000000 </v>
    <v>       0.00000000       0.00000000       0.17352486 </v>
   </varray>
  </crystal>
  <varray name="positions" >
   <v>       0.75000000       0.75000000       0.75000000 </v>
   <v>       0.50000000       0.00000000       0.00000000 </v>
   <v>       0.75000000       0.25000000       0.25000000 </v>
   <v>       0.50000000       0.50000000       0.50000000 </v>
   <v>       0.25000000       0.75000000       0.25000000 </v>
   <v>       0.00000000       0.00000000       0.50000000 </v>
   <v>       0.25000000       0.25000000       0.75000000 </v>
   <v>       0.00000000       0.50000000       0.00000000 </v>
  </varray>
 </structure>
 <calculation>
  <scstep>
   <time name="dav">    0.16    0.16</time>
   <time name="total">    0.18    0.19</time>
   <energy>
    <i name="alphaZ">     59.64982895 </i>
    <i name="ewald">   -484.56382983 </i>
    <i name="hartreedc">    -22.55400900 </i>
    <i name="XCdc">   -155.28694958 </i>
    <i name="pawpsdc">    330.10196642 </i>
    <i name="pawaedc">   -140.54714835 </i>
    <i name="eentropy">     -0.04490095 </i>
    <i name="bandstr">    -46.62447654 </i>
    <i name="atom">    470.93120954 </i>
    <i name="e_fr_energy">     11.06169066 </i>
    <i name="e_wo_entrp">     11.10659160 </i>
    <i name="e_0_energy">     11.08414113 </i>
   </energy>
  </scstep>
  <scstep>
   <time name="dav">    0.27    0.27</time>
   <time name="total">    0.27    0.27</time>
   <energy>
    <i name="e_fr_energy">    -20.59139396 </i>
    <i name="e_wo_entrp">    -20.48976432 </i>
    <i name="e_0_energy">    -20.54057914 </i>
   </energy>
  </scstep>
  <scstep>
   <time name="dav">    0.18    0.18</time>
   <time name="total">    0.18    0.18</time>
   <energy>
    <i name="e_fr_energy">    -21.02219164 </i>
    <i name="e_wo_entrp">    -20.91995744 </i>
    <i name="e_0_energy">    -20.97107454 </i>
   </energy>
  </scstep>
  <scstep>
   <time name="dav">    0.37    0.37</time>
   <time name="total">    0.37    0.37</time>
   <energy>
    <i name="e_fr_energy">    -21.02298838 </i>
    <i name="e_wo_entrp">    -20.92074351 </i>
    <i name="e_0_energy">    -20.97186595 </i>
   </energy>
  </scstep>
  <scstep>
   <time name="dav">    0.17    0.18</time>
   <time name="total">    0.19    0.19</time>
   <energy>
    <i name="e_fr_energy">    -21.02298844 </i>
    <i name="e_wo_entrp">    -20.92074356 </i>
    <i name="e_0_energy">    -20.97186600 </i>
   </energy>
  </scstep>
  <scstep>
   <time name="diag">    0.06    0.08</time>
   <time name="diis">    0.04    0.04</time>
   <time name="orth">    0.00    0.00</time>
   <time name="total">    0.12    0.15</time>
   <energy>
    <i name="e_fr_energy">    -20.93697153 </i>
    <i name="e_wo_entrp">    -20.83475474 </i>
    <i name="e_0_energy">    -20.88586313 </i>
   </energy>
  </scstep>
  <scstep>
   <time name="diag">    0.04    0.04</time>
   <time name="diis">    0.05    0.05</time>
   <time name="orth">    0.00    0.00</time>
   <time name="total">    0.11    0.11</time>
   <energy>
    <i name="e_fr_energy">    -20.89041048 </i>
    <i name="e_wo_entrp">    -20.78822524 </i>
    <i name="e_0_energy">    -20.83931786 </i>
   </energy>
  </scstep>
  <scstep>
   <time name="diag">    0.04    0.04</time>
   <time name="diis">    0.07    0.07</time>
   <time name="orth">    0.00    0.00</time>
   <time name="total">    0.14    0.14</time>
   <energy>
    <i name="e_fr_energy">    -20.89071528 </i>
    <i name="e_wo_entrp">    -20.78851144 </i>
    <i name="e_0_energy">    -20.83961336 </i>
   </energy>
  </scstep>
  <scstep>
   <time name="diag">    0.04    0.04</time>
   <time name="diis">    0.06    0.06</time>
   <time name="orth">    0.00    0.00</time>
   <time name="total">    0.11    0.11</time>
   <energy>
    <i name="alphaZ">     59.64982895 </i>
    <i name="ewald">   -484.56382983 </i>
    <i name="hartreedc">    -24.23908705 </i>
    <i name="XCdc">   -153.70190316 </i>
    <i name="pawpsdc">    423.43534375 </i>
    <i name="pawaedc">   -235.30906833 </i>
    <i name="eentropy">     -0.10220979 </i>
    <i name="bandstr">    -76.99103904 </i>
    <i name="atom">    470.93120954 </i>
    <i name="e_fr_energy">    -20.89075497 </i>
    <i name="e_wo_entrp">    -20.78854518 </i>
    <i name="e_0_energy">    -20.83965008 </i>
   </energy>
  </scstep>
  <structure>
   <crystal>
    <varray name="basis" >
     <v>       5.76286300       0.00000000       0.00000000 </v>
     <v>       0.00000000       5.76286300       0.00000000 </v>
     <v>       0.00000000       0.00000000       5.76286300 </v>
    </varray>
    <i name="volume">    191.38808007 </i>
    <varray name="rec_basis" >
     <v>       0.17352486       0.00000000       0.00000000 </v>
     <v>       0.00000000       0.17352486       0.00000000 </v>
     <v>       0.00000000       0.00000000       0.17352486 </v>
    </varray>
   </crystal>
   <varray name="positions" >
    <v>       0.75000000       0.75000000       0.75000000 </v>
    <v>       0.50000000       0.00000000       0.00000000 </v>
    <v>       0.75000000       0.25000000       0.25000000 </v>
    <v>       0.50000000       0.50000000       0.50000000 </v>
    <v>       0.25000000       0.75000000       0.25000000 </v>
    <v>       0.00000000       0.00000000       0.50000000 </v>
    <v>       0.25000000       0.25000000       0.75000000 </v>
    <v>       0.00000000       0.50000000       0.00000000 </v>
   </varray>
  </structure>
  <varray name="forces" >
   <v>      -0.00000000      -0.00000000       0.00000000 </v>
   <v>       0.00000000      -0.00000000      -0.00000000 </v>
   <v>       0.00000000      -0.00000000      -0.00000000 </v>
   <v>       0.00000000      -0.00000000      -0.00000000 </v>
   <v>      -0.00000000      -0.00000000       0.00000000 </v>
   <v>       0.00000000       0.00000000      -0.00000000 </v>
   <v>      -0.00000000       0.00000000      -0.00000000 </v>
   <v>      -0.00000000       0.00000000       0.00000000 </v>
  </varray>
  <varray name="stress" >
   <v>      26.52373990      -0.00000000      -0.00000000 </v>
   <v>       0.00000000      26.52373990      -0.00000000 </v>
   <v>       0.00000000       0.00000000      26.52373990 </v>
  </varray>
  <energy>
   <i name="e_fr_energy">    -20.89075497 </i>
   <i name="e_wo_entrp">    -20.83965008 </i>
   <i name="e_0_energy">     -0.10220979 </i>
  </energy>
  <time name="totalsc">    1.88    1.94</time>
  <eigenvalues>
   <array>
    <dimension dim="1">band</dimension>
    <dimension dim="2">kpoint</dimension>
    <dimension dim="3">spin</dimension>
    <field>eigene</field>
    <field>occ</field>
    <set>
     <set comment="spin 1">
      <set comment="kpoint 1">
       <r>   -8.8556    1.0000 </r>
       <r>   -4.8409    1.0000 </r>
       <r>   -4.8409    1.0000 </r>
       <r>   -4.8409    1.0000 </r>
       <r>   -4.8409    1.0000 </r>
       <r>   -4.8409    1.0000 </r>
       <r>   -4.8409    1.0000 </r>
       <r>    0.2308    0.9999 </r>
       <r>    0.2308    0.9999 </r>
       <r>    0.2308    0.9999 </r>
       <r>    0.2308    0.9999 </r>
       <r>    0.2308    0.9999 </r>
       <r>    0.2308    0.9999 </r>
       <r>    3.6004    0.0000 </r>
       <r>    3.6004    0.0000 </r>
       <r>    3.6004    0.0000 </r>
       <r>    3.6004    0.0000 </r>
       <r>    3.6004    0.0000 </r>
       <r>    3.6004    0.0000 </r>
       <r>    3.6785    0.0000 </r>
      </set>
      <set comment="kpoint 2">
       <r>   -8.8041    1.0000 </r>
       <r>   -5.6518    1.0000 </r>
       <r>   -4.8234    1.0000 </r>
       <r>   -4.8234    1.0000 </r>
       <r>   -4.8234    1.0000 </r>
       <r>   -4.8234    1.0000 </r>
       <r>   -3.9601    1.0000 </r>
       <r>    0.0695    1.0000 </r>
       <r>    0.0695    1.0000 </r>
       <r>    0.0695    1.0000 </r>
       <r>    0.0695    1.0000 </r>
       <r>    0.2862    0.9995 </r>
       <r>    0.2862    0.9995 </r>
       <r>    3.0482    0.0000 </r>
       <r>    3.3729    0.0000 </r>
       <r>    3.3729    0.0000 </r>
       <r>    3.4684    0.0000 </r>
       <r>    3.8659    0.0000 </r>
       <r>    3.9005    0.0000 </r>
       <r>    3.9005    0.0000 </r>
      </set>
      <set comment="kpoint 3">
       <r>   -8.6501    1.0000 </r>
       <r>   -6.3834    1.0000 </r>
       <r>   -4.7778    1.0000 </r>
       <r>   -4.7778    1.0000 </r>
       <r>   -4.7778    1.0000 </r>
       <r>   -4.7778    1.0000 </r>
       <r>   -3.0208    1.0000 </r>
       <r>   -0.2740    1.0000 </r>
       <r>   -0.2740    1.0000 </r>
       <r>   -0.2740    1.0000 </r>
       <r>   -0.2740    1.0000 </r>
       <r>    0.4548    0.9823 </r>
       <r>    0.4548    0.9823 </r>
       <r>    2.0590    0.0000 </r>
       <r>    2.7753    0.0000 </r>
       <r>    2.7753    0.0000 </r>
       <r>    3.4633    0.0000 </r>
       <r>    4.2707    0.0000 </r>
       <r>    4.6652    0.0000 </r>
       <r>    4.6652    0.0000 </r>
      </set>
      <set comment="kpoint 4">
       <r>   -8.3939    1.0000 </r>
       <r>   -7.0281    1.0000 </r>
       <r>   -4.7229    1.0000 </r>
       <r>   -4.7229    1.0000 </r>
       <r>   -4.7229    1.0000 </r>
       <r>   -4.7229    1.0000 </r>
       <r>   -2.0387    1.0000 </r>
       <r>   -0.5979    1.0000 </r>
       <r>   -0.5979    1.0000 </r>
       <r>   -0.5979    1.0000 </r>
       <r>   -0.5979    1.0000 </r>
       <r>    0.7317    0.5583 </r>
       <r>    0.7317    0.5583 </r>
       <r>    1.0326    0.0238 </r>
       <r>    2.1552    0.0000 </r>
       <r>    2.1552    0.0000 </r>
       <r>    3.5793    0.0000 </r>
       <r>    4.5725    0.0000 </r>
       <r>    4.8152    0.0000 </r>
       <r>    5.7054    0.0000 </r>
      </set>
      <set comment="kpoint 5">
       <r>   -8.0370    1.0000 </r>
       <r>   -7.5810    1.0000 </r>
       <r>   -4.6853    1.0000 </r>
       <r>   -4.6853    1.0000 </r>
       <r>   -4.6853    1.0000 </r>
       <r>   -4.6853    1.0000 </r>
       <r>   -1.0262    1.0000 </r>
       <r>   -0.7862    1.0000 </r>
       <r>   -0.7862    1.0000 </r>
       <r>   -0.7862    1.0000 </r>
       <r>   -0.7862    1.0000 </r>
       <r>    0.0010    1.0000 </r>
       <r>    1.1134    0.0054 </r>
       <r>    1.1134    0.0054 </r>
       <r>    1.5926    0.0000 </r>
       <r>    1.5926    0.0000 </r>
       <r>    3.8103    0.0000 </r>
       <r>    4.1465    0.0000 </r>
       <r>    5.4845    0.0000 </r>
       <r>    6.1999    0.0000 </r>
      </set>
      <set comment="kpoint 6">
       <r>   -8.7529    1.0000 </r>
       <r>   -5.6220    1.0000 </r>
       <r>   -5.6220    1.0000 </r>
       <r>   -4.8925    1.0000 </r>
       <r>   -4.7258    1.0000 </r>
       <r>   -3.9620    1.0000 </r>
       <r>   -3.9620    1.0000 </r>
       <r>   -0.3707    1.0000 </r>
       <r>    0.0942    1.0000 </r>
       <r>    0.0942    1.0000 </r>
       <r>    0.1653    1.0000 </r>
       <r>    0.1653    1.0000 </r>
       <r>    0.3276    0.9987 </r>
       <r>    2.4026    0.0000 </r>
       <r>    3.0737    0.0000 </r>
       <r>    3.6046    0.0000 </r>
       <r>    3.6933    0.0000 </r>
       <r>    3.7887    0.0000 </r>
       <r>    3.7887    0.0000 </r>
       <r>    4.1433    0.0000 </r>
      </set>
      <set comment="kpoint 7">
       <r>   -8.5993    1.0000 </r>
       <r>   -6.3456    1.0000 </r>
       <r>   -5.5369    1.0000 </r>
       <r>   -4.9506    1.0000 </r>
       <r>   -4.5935    1.0000 </r>
       <r>   -3.9770    1.0000 </r>
       <r>   -3.0539    1.0000 </r>
       <r>   -0.7887    1.0000 </r>
       <r>   -0.3170    1.0000 </r>
       <r>   -0.0857    1.0000 </r>
       <r>    0.2369    0.9999 </r>
       <r>    0.2620    0.9997 </r>
       <r>    0.3851    0.9953 </r>
       <r>    1.5424    0.0000 </r>
       <r>    2.4840    0.0000 </r>
       <r>    3.1731    0.0000 </r>
       <r>    3.8012    0.0000 </r>
       <r>    4.0860    0.0000 </r>
       <r>    4.5222    0.0000 </r>
       <r>    4.5864    0.0000 </r>
      </set>
      <set comment="kpoint 8">
       <r>   -8.3440    1.0000 </r>
       <r>   -6.9855    1.0000 </r>
       <r>   -5.4100    1.0000 </r>
       <r>   -5.0230    1.0000 </r>
       <r>   -4.4343    1.0000 </r>
       <r>   -4.0250    1.0000 </r>
       <r>   -2.1191    1.0000 </r>
       <r>   -1.0675    1.0000 </r>
       <r>   -0.7289    1.0000 </r>
       <r>   -0.2890    1.0000 </r>
       <r>    0.0091    1.0000 </r>
       <r>    0.4930    0.9667 </r>
       <r>    0.6558    0.7527 </r>
       <r>    0.7310    0.5602 </r>
       <r>    1.8735    0.0000 </r>
       <r>    2.4743    0.0000 </r>
       <r>    3.9322    0.0000 </r>
       <r>    4.9413    0.0000 </r>
       <r>    4.9504    0.0000 </r>
       <r>    5.0375    0.0000 </r>
      </set>
      <set comment="kpoint 9">
       <r>   -7.9885    1.0000 </r>
       <r>   -7.5347    1.0000 </r>
       <r>   -5.2643    1.0000 </r>
       <r>   -5.1279    1.0000 </r>
       <r>   -4.2678    1.0000 </r>
       <r>   -4.1230    1.0000 </r>
       <r>   -1.1788    1.0000 </r>
       <r>   -1.1496    1.0000 </r>
       <r>   -1.0268    1.0000 </r>
       <r>   -0.3439    1.0000 </r>
       <r>   -0.2506    1.0000 </r>
       <r>   -0.2299    1.0000 </r>
       <r>    0.8570    0.2299 </r>
       <r>    1.2026    0.0007 </r>
       <r>    1.3215    0.0000 </r>
       <r>    1.7923    0.0000 </r>
       <r>    4.1750    0.0000 </r>
       <r>    4.5198    0.0000 </r>
       <r>    5.6702    0.0000 </r>
       <r>    6.0681    0.0000 </r>
      </set>
      <set comment="kpoint 10">
       <r>   -8.4471    1.0000 </r>
       <r>   -6.2351    1.0000 </r>
       <r>   -6.2351    1.0000 </r>
       <r>   -5.1354    1.0000 </r>
       <r>   -4.3803    1.0000 </r>
       <r>   -3.1587    1.0000 </r>
       <r>   -3.1587    1.0000 </r>
       <r>   -1.1634    1.0000 </r>
       <r>   -0.2256    1.0000 </r>
       <r>   -0.2256    1.0000 </r>
       <r>    0.2581    0.9998 </r>
       <r>    0.2581    0.9998 </r>
       <r>    0.6152    0.8341 </r>
       <r>    0.7731    0.4420 </r>
       <r>    1.9055    0.0000 </r>
       <r>    3.3580    0.0000 </r>
       <r>    3.9681    0.0000 </r>
       <r>    4.6249    0.0000 </r>
       <r>    4.6249    0.0000 </r>
       <r>    5.1965    0.0000 </r>
      </set>
      <set comment="kpoint 11">
       <r>   -8.1946    1.0000 </r>
       <r>   -6.8584    1.0000 </r>
       <r>   -6.0607    1.0000 </r>
       <r>   -5.3500    1.0000 </r>
       <r>   -4.1335    1.0000 </r>
       <r>   -3.3399    1.0000 </r>
       <r>   -2.3463    1.0000 </r>
       <r>   -1.3395    1.0000 </r>
       <r>   -0.6995    1.0000 </r>
       <r>   -0.0074    1.0000 </r>
       <r>   -0.0068    1.0000 </r>
       <r>    0.2049    0.9999 </r>
       <r>    0.6352    0.7966 </r>
       <r>    0.7618    0.4736 </r>
       <r>    1.3061    0.0000 </r>
       <r>    2.8891    0.0000 </r>
       <r>    4.4472    0.0000 </r>
       <r>    4.7752    0.0000 </r>
       <r>    5.6503    0.0000 </r>
       <r>    5.7085    0.0000 </r>
      </set>
      <set comment="kpoint 12">
       <r>   -7.8436    1.0000 </r>
       <r>   -7.3968    1.0000 </r>
       <r>   -5.8382    1.0000 </r>
       <r>   -5.5917    1.0000 </r>
       <r>   -3.8609    1.0000 </r>
       <r>   -3.5851    1.0000 </r>
       <r>   -1.5541    1.0000 </r>
       <r>   -1.3048    1.0000 </r>
       <r>   -1.0785    1.0000 </r>
       <r>   -0.7791    1.0000 </r>
       <r>    0.2808    0.9996 </r>
       <r>    0.3277    0.9987 </r>
       <r>    0.4586    0.9811 </r>
       <r>    0.7703    0.4498 </r>
       <r>    1.4089    0.0000 </r>
       <r>    2.1525    0.0000 </r>
       <r>    5.0297    0.0000 </r>
       <r>    5.3780    0.0000 </r>
       <r>    5.3843    0.0000 </r>
       <r>    6.1847    0.0000 </r>
      </set>
      <set comment="kpoint 13">
       <r>   -7.9472    1.0000 </r>
       <r>   -6.6526    1.0000 </r>
       <r>   -6.6526    1.0000 </r>
       <r>   -5.7009    1.0000 </r>
       <r>   -3.8044    1.0000 </r>
       <r>   -2.6773    1.0000 </r>
       <r>   -2.6773    1.0000 </r>
       <r>   -1.3997    1.0000 </r>
       <r>   -0.6975    1.0000 </r>
       <r>   -0.5255    1.0000 </r>
       <r>   -0.5255    1.0000 </r>
       <r>    0.7187    0.5943 </r>
       <r>    0.8655    0.2121 </r>
       <r>    0.8655    0.2121 </r>
       <r>    1.0708    0.0122 </r>
       <r>    2.9093    0.0000 </r>
       <r>    4.4067    0.0000 </r>
       <r>    5.6837    0.0000 </r>
       <r>    5.8662    0.0000 </r>
       <r>    5.8662    0.0000 </r>
      </set>
      <set comment="kpoint 14">
       <r>   -7.6045    1.0000 </r>
       <r>   -7.1707    1.0000 </r>
       <r>   -6.3786    1.0000 </r>
       <r>   -6.0534    1.0000 </r>
       <r>   -3.4426    1.0000 </r>
       <r>   -3.0577    1.0000 </r>
       <r>   -2.0273    1.0000 </r>
       <r>   -1.3720    1.0000 </r>
       <r>   -1.2641    1.0000 </r>
       <r>   -0.9607    1.0000 </r>
       <r>   -0.2218    1.0000 </r>
       <r>    0.1985    1.0000 </r>
       <r>    1.0289    0.0253 </r>
       <r>    1.1597    0.0020 </r>
       <r>    1.6366    0.0000 </r>
       <r>    2.3979    0.0000 </r>
       <r>    4.9556    0.0000 </r>
       <r>    5.9202    0.0000 </r>
       <r>    5.9475    0.0000 </r>
       <r>    6.1198    0.0000 </r>
      </set>
      <set comment="kpoint 15">
       <r>   -7.2756    1.0000 </r>
       <r>   -6.8631    1.0000 </r>
       <r>   -6.8631    1.0000 </r>
       <r>   -6.4851    1.0000 </r>
       <r>   -2.9965    1.0000 </r>
       <r>   -2.5207    1.0000 </r>
       <r>   -2.5207    1.0000 </r>
       <r>   -1.9596    1.0000 </r>
       <r>   -1.0517    1.0000 </r>
       <r>   -0.6952    1.0000 </r>
       <r>   -0.6952    1.0000 </r>
       <r>   -0.3022    1.0000 </r>
       <r>    1.6577    0.0000 </r>
       <r>    1.7792    0.0000 </r>
       <r>    1.7792    0.0000 </r>
       <r>    2.3047    0.0000 </r>
       <r>    4.9597    0.0000 </r>
       <r>    5.4816    0.0000 </r>
       <r>    5.5267    0.0000 </r>
       <r>    5.5267    0.0000 </r>
      </set>
      <set comment="kpoint 16">
       <r>   -8.7018    1.0000 </r>
       <r>   -5.5978    1.0000 </r>
       <r>   -5.5978    1.0000 </r>
       <r>   -5.5978    1.0000 </r>
       <r>   -3.9666    1.0000 </r>
       <r>   -3.9666    1.0000 </r>
       <r>   -3.9666    1.0000 </r>
       <r>   -0.2970    1.0000 </r>
       <r>   -0.2970    1.0000 </r>
       <r>   -0.2970    1.0000 </r>
       <r>    0.3832    0.9955 </r>
       <r>    0.3832    0.9955 </r>
       <r>    0.3832    0.9955 </r>
       <r>    1.8642    0.0000 </r>
       <r>    3.3387    0.0000 </r>
       <r>    3.3387    0.0000 </r>
       <r>    3.7322    0.0000 </r>
       <r>    3.7322    0.0000 </r>
       <r>    3.7322    0.0000 </r>
       <r>    4.6627    0.0000 </r>
      </set>
      <set comment="kpoint 17">
       <r>   -8.5487    1.0000 </r>
       <r>   -6.3103    1.0000 </r>
       <r>   -5.5318    1.0000 </r>
       <r>   -5.5318    1.0000 </r>
       <r>   -3.9843    1.0000 </r>
       <r>   -3.9843    1.0000 </r>
       <r>   -3.0981    1.0000 </r>
       <r>   -0.6969    1.0000 </r>
       <r>   -0.6969    1.0000 </r>
       <r>   -0.0722    1.0000 </r>
       <r>    0.3279    0.9987 </r>
       <r>    0.3279    0.9987 </r>
       <r>    0.5482    0.9257 </r>
       <r>    1.0701    0.0124 </r>
       <r>    2.7894    0.0000 </r>
       <r>    3.0127    0.0000 </r>
       <r>    3.8530    0.0000 </r>
       <r>    4.1397    0.0000 </r>
       <r>    4.1397    0.0000 </r>
       <r>    4.9310    0.0000 </r>
      </set>
      <set comment="kpoint 18">
       <r>   -8.2944    1.0000 </r>
       <r>   -6.9437    1.0000 </r>
       <r>   -5.4484    1.0000 </r>
       <r>   -5.4484    1.0000 </r>
       <r>   -4.0184    1.0000 </r>
       <r>   -4.0184    1.0000 </r>
       <r>   -2.2226    1.0000 </r>
       <r>   -0.9720    1.0000 </r>
       <r>   -0.9720    1.0000 </r>
       <r>    0.1100    1.0000 </r>
       <r>    0.1100    1.0000 </r>
       <r>    0.2657    0.9997 </r>
       <r>    0.3073    0.9992 </r>
       <r>    0.8197    0.3173 </r>
       <r>    2.2007    0.0000 </r>
       <r>    2.2761    0.0000 </r>
       <r>    4.0621    0.0000 </r>
       <r>    4.9949    0.0000 </r>
       <r>    4.9949    0.0000 </r>
       <r>    5.1741    0.0000 </r>
      </set>
      <set comment="kpoint 19">
       <r>   -7.9404    1.0000 </r>
       <r>   -7.4891    1.0000 </r>
       <r>   -5.3873    1.0000 </r>
       <r>   -5.3873    1.0000 </r>
       <r>   -4.0507    1.0000 </r>
       <r>   -4.0507    1.0000 </r>
       <r>   -1.3665    1.0000 </r>
       <r>   -1.0988    1.0000 </r>
       <r>   -1.0988    1.0000 </r>
       <r>   -0.5402    1.0000 </r>
       <r>   -0.0573    1.0000 </r>
       <r>   -0.0573    1.0000 </r>
       <r>    0.8422    0.2628 </r>
       <r>    1.1924    0.0009 </r>
       <r>    1.5154    0.0000 </r>
       <r>    1.6580    0.0000 </r>
       <r>    4.3617    0.0000 </r>
       <r>    4.7445    0.0000 </r>
       <r>    5.9251    0.0000 </r>
       <r>    6.1179    0.0000 </r>
      </set>
      <set comment="kpoint 20">
       <r>   -8.3972    1.0000 </r>
       <r>   -6.2082    1.0000 </r>
       <r>   -6.2082    1.0000 </r>
       <r>   -5.5320    1.0000 </r>
       <r>   -3.9952    1.0000 </r>
       <r>   -3.2309    1.0000 </r>
       <r>   -3.2309    1.0000 </r>
       <r>   -1.0231    1.0000 </r>
       <r>   -0.4256    1.0000 </r>
       <r>   -0.4256    1.0000 </r>
       <r>    0.3311    0.9986 </r>
       <r>    0.5276    0.9441 </r>
       <r>    0.5276    0.9441 </r>
       <r>    0.6663    0.7289 </r>
       <r>    2.3312    0.0000 </r>
       <r>    3.1889    0.0000 </r>
       <r>    4.0310    0.0000 </r>
       <r>    4.2988    0.0000 </r>
       <r>    4.2988    0.0000 </r>
       <r>    5.0474    0.0000 </r>
      </set>
      <set comment="kpoint 21">
       <r>   -8.1459    1.0000 </r>
       <r>   -6.8211    1.0000 </r>
       <r>   -6.0520    1.0000 </r>
       <r>   -5.5757    1.0000 </r>
       <r>   -3.9698    1.0000 </r>
       <r>   -3.4366    1.0000 </r>
       <r>   -2.4996    1.0000 </r>
       <r>   -1.1574    1.0000 </r>
       <r>   -0.7118    1.0000 </r>
       <r>   -0.4035    1.0000 </r>
       <r>    0.0042    1.0000 </r>
       <r>    0.4224    0.9902 </r>
       <r>    0.6944    0.6593 </r>
       <r>    0.8761    0.1910 </r>
       <r>    1.7213    0.0000 </r>
       <r>    2.7492    0.0000 </r>
       <r>    4.5075    0.0000 </r>
       <r>    4.5575    0.0000 </r>
       <r>    5.1530    0.0000 </r>
       <r>    5.3763    0.0000 </r>
      </set>
      <set comment="kpoint 22">
       <r>   -7.7970    1.0000 </r>
       <r>   -7.3536    1.0000 </r>
       <r>   -5.8670    1.0000 </r>
       <r>   -5.6930    1.0000 </r>
       <r>   -3.8615    1.0000 </r>
       <r>   -3.6682    1.0000 </r>
       <r>   -1.7995    1.0000 </r>
       <r>   -1.1138    1.0000 </r>
       <r>   -1.1095    1.0000 </r>
       <r>   -0.9462    1.0000 </r>
       <r>    0.4183    0.9909 </r>
       <r>    0.5381    0.9352 </r>
       <r>    0.5446    0.9292 </r>
       <r>    1.1173    0.0049 </r>
       <r>    1.3897    0.0000 </r>
       <r>    2.0501    0.0000 </r>
       <r>    4.9008    0.0000 </r>
       <r>    5.2801    0.0000 </r>
       <r>    5.4369    0.0000 </r>
       <r>    6.2658    0.0000 </r>
      </set>
      <set comment="kpoint 23">
       <r>   -7.9004    1.0000 </r>
       <r>   -6.6246    1.0000 </r>
       <r>   -6.6246    1.0000 </r>
       <r>   -5.7979    1.0000 </r>
       <r>   -3.8297    1.0000 </r>
       <r>   -2.8694    1.0000 </r>
       <r>   -2.8694    1.0000 </r>
       <r>   -1.1502    1.0000 </r>
       <r>   -1.0781    1.0000 </r>
       <r>   -0.3428    1.0000 </r>
       <r>   -0.3428    1.0000 </r>
       <r>    0.9516    0.0795 </r>
       <r>    0.9516    0.0795 </r>
       <r>    1.1148    0.0052 </r>
       <r>    1.1453    0.0027 </r>
       <r>    2.8395    0.0000 </r>
       <r>    4.4669    0.0000 </r>
       <r>    5.3311    0.0000 </r>
       <r>    5.4050    0.0000 </r>
       <r>    5.4050    0.0000 </r>
      </set>
      <set comment="kpoint 24">
       <r>   -7.5609    1.0000 </r>
       <r>   -7.1325    1.0000 </r>
       <r>   -6.3688    1.0000 </r>
       <r>   -6.0796    1.0000 </r>
       <r>   -3.5834    1.0000 </r>
       <r>   -3.2503    1.0000 </r>
       <r>   -2.3033    1.0000 </r>
       <r>   -1.7127    1.0000 </r>
       <r>   -0.9793    1.0000 </r>
       <r>   -0.6916    1.0000 </r>
       <r>    0.0957    1.0000 </r>
       <r>    0.5938    0.8691 </r>
       <r>    1.0896    0.0086 </r>
       <r>    1.2062    0.0007 </r>
       <r>    1.6431    0.0000 </r>
       <r>    2.3598    0.0000 </r>
       <r>    5.0051    0.0000 </r>
       <r>    5.6251    0.0000 </r>
       <r>    5.6932    0.0000 </r>
       <r>    5.9679    0.0000 </r>
      </set>
      <set comment="kpoint 25">
       <r>   -7.2371    1.0000 </r>
       <r>   -6.8346    1.0000 </r>
       <r>   -6.8346    1.0000 </r>
       <r>   -6.4749    1.0000 </r>
       <r>   -3.2242    1.0000 </r>
       <r>   -2.7917    1.0000 </r>
       <r>   -2.7917    1.0000 </r>
       <r>   -2.2794    1.0000 </r>
       <r>   -0.7122    1.0000 </r>
       <r>   -0.3415    1.0000 </r>
       <r>   -0.3415    1.0000 </r>
       <r>    0.0936    1.0000 </r>
       <r>    1.6860    0.0000 </r>
       <r>    1.7992    0.0000 </r>
       <r>    1.7992    0.0000 </r>
       <r>    2.3002    0.0000 </r>
       <r>    4.9945    0.0000 </r>
       <r>    5.4006    0.0000 </r>
       <r>    5.5166    0.0000 </r>
       <r>    5.5166    0.0000 </r>
      </set>
      <set comment="kpoint 26">
       <r>   -8.2478    1.0000 </r>
       <r>   -6.1351    1.0000 </r>
       <r>   -6.1351    1.0000 </r>
       <r>   -6.1351    1.0000 </r>
       <r>   -3.4206    1.0000 </r>
       <r>   -3.4206    1.0000 </r>
       <r>   -3.4206    1.0000 </r>
       <r>   -0.6127    1.0000 </r>
       <r>   -0.6127    1.0000 </r>
       <r>   -0.6127    1.0000 </r>
       <r>   -0.3781    1.0000 </r>
       <r>    0.8198    0.3169 </r>
       <r>    0.8198    0.3169 </r>
       <r>    0.8198    0.3169 </r>
       <r>    2.7866    0.0000 </r>
       <r>    2.7866    0.0000 </r>
       <r>    4.2179    0.0000 </r>
       <r>    4.2179    0.0000 </r>
       <r>    4.2179    0.0000 </r>
       <r>    4.5570    0.0000 </r>
      </set>
      <set comment="kpoint 27">
       <r>   -8.0006    1.0000 </r>
       <r>   -6.7130    1.0000 </r>
       <r>   -6.0414    1.0000 </r>
       <r>   -6.0414    1.0000 </r>
       <r>   -3.6455    1.0000 </r>
       <r>   -3.6455    1.0000 </r>
       <r>   -2.8595    1.0000 </r>
       <r>   -1.0717    1.0000 </r>
       <r>   -0.6662    1.0000 </r>
       <r>   -0.6662    1.0000 </r>
       <r>    0.0265    1.0000 </r>
       <r>    0.8747    0.1936 </r>
       <r>    0.8747    0.1936 </r>
       <r>    1.0718    0.0120 </r>
       <r>    2.3046    0.0000 </r>
       <r>    2.4528    0.0000 </r>
       <r>    4.5189    0.0000 </r>
       <r>    4.6848    0.0000 </r>
       <r>    4.6848    0.0000 </r>
       <r>    4.8279    0.0000 </r>
      </set>
      <set comment="kpoint 28">
       <r>   -7.6584    1.0000 </r>
       <r>   -7.2264    1.0000 </r>
       <r>   -5.9720    1.0000 </r>
       <r>   -5.9720    1.0000 </r>
       <r>   -3.7982    1.0000 </r>
       <r>   -3.7982    1.0000 </r>
       <r>   -2.3016    1.0000 </r>
       <r>   -1.7120    1.0000 </r>
       <r>   -0.6539    1.0000 </r>
       <r>   -0.6539    1.0000 </r>
       <r>    0.8136    0.3328 </r>
       <r>    0.8136    0.3328 </r>
       <r>    0.8167    0.3248 </r>
       <r>    1.4136    0.0000 </r>
       <r>    1.6677    0.0000 </r>
       <r>    1.8328    0.0000 </r>
       <r>    4.8944    0.0000 </r>
       <r>    5.1572    0.0000 </r>
       <r>    5.5853    0.0000 </r>
       <r>    5.5853    0.0000 </r>
      </set>
      <set comment="kpoint 29">
       <r>   -7.7611    1.0000 </r>
       <r>   -6.5483    1.0000 </r>
       <r>   -6.5483    1.0000 </r>
       <r>   -6.0703    1.0000 </r>
       <r>   -3.8074    1.0000 </r>
       <r>   -3.2661    1.0000 </r>
       <r>   -3.2661    1.0000 </r>
       <r>   -1.7253    1.0000 </r>
       <r>   -0.5247    1.0000 </r>
       <r>    0.0044    1.0000 </r>
       <r>    0.0044    1.0000 </r>
       <r>    1.1883    0.0010 </r>
       <r>    1.1883    0.0010 </r>
       <r>    1.2440    0.0003 </r>
       <r>    1.8843    0.0000 </r>
       <r>    2.6452    0.0000 </r>
       <r>    4.6394    0.0000 </r>
       <r>    4.6498    0.0000 </r>
       <r>    4.9582    0.0000 </r>
       <r>    4.9582    0.0000 </r>
      </set>
      <set comment="kpoint 30">
       <r>   -7.4321    1.0000 </r>
       <r>   -7.0224    1.0000 </r>
       <r>   -6.3543    1.0000 </r>
       <r>   -6.1780    1.0000 </r>
       <r>   -3.8026    1.0000 </r>
       <r>   -3.6063    1.0000 </r>
       <r>   -2.8265    1.0000 </r>
       <r>   -2.3144    1.0000 </r>
       <r>   -0.3214    1.0000 </r>
       <r>   -0.1195    1.0000 </r>
       <r>    0.7072    0.6256 </r>
       <r>    1.2771    0.0001 </r>
       <r>    1.3345    0.0000 </r>
       <r>    1.3468    0.0000 </r>
       <r>    1.6566    0.0000 </r>
       <r>    2.2393    0.0000 </r>
       <r>    5.0394    0.0000 </r>
       <r>    5.1325    0.0000 </r>
       <r>    5.2155    0.0000 </r>
       <r>    5.7021    0.0000 </r>
      </set>
      <set comment="kpoint 31">
       <r>   -7.1263    1.0000 </r>
       <r>   -6.7572    1.0000 </r>
       <r>   -6.7572    1.0000 </r>
       <r>   -6.4594    1.0000 </r>
       <r>   -3.6227    1.0000 </r>
       <r>   -3.2837    1.0000 </r>
       <r>   -3.2837    1.0000 </r>
       <r>   -2.8471    1.0000 </r>
       <r>    0.0302    1.0000 </r>
       <r>    0.3899    0.9948 </r>
       <r>    0.3899    0.9948 </r>
       <r>    0.8732    0.1967 </r>
       <r>    1.7665    0.0000 </r>
       <r>    1.8525    0.0000 </r>
       <r>    1.8525    0.0000 </r>
       <r>    2.2806    0.0000 </r>
       <r>    5.0379    0.0000 </r>
       <r>    5.0501    0.0000 </r>
       <r>    5.3465    0.0000 </r>
       <r>    5.3465    0.0000 </r>
      </set>
      <set comment="kpoint 32">
       <r>   -7.5334    1.0000 </r>
       <r>   -6.4503    1.0000 </r>
       <r>   -6.4503    1.0000 </r>
       <r>   -6.4503    1.0000 </r>
       <r>   -3.6415    1.0000 </r>
       <r>   -3.6415    1.0000 </r>
       <r>   -3.6415    1.0000 </r>
       <r>   -2.3507    1.0000 </r>
       <r>    0.2941    0.9994 </r>
       <r>    0.2941    0.9994 </r>
       <r>    0.2941    0.9994 </r>
       <r>    1.4527    0.0000 </r>
       <r>    1.4527    0.0000 </r>
       <r>    1.4527    0.0000 </r>
       <r>    2.3618    0.0000 </r>
       <r>    2.3618    0.0000 </r>
       <r>    4.1960    0.0000 </r>
       <r>    4.8758    0.0000 </r>
       <r>    4.8758    0.0000 </r>
       <r>    4.8758    0.0000 </r>
      </set>
      <set comment="kpoint 33">
       <r>   -7.2256    1.0000 </r>
       <r>   -6.8544    1.0000 </r>
       <r>   -6.3778    1.0000 </r>
       <r>   -6.3778    1.0000 </r>
       <r>   -3.8665    1.0000 </r>
       <r>   -3.8665    1.0000 </r>
       <r>   -3.3300    1.0000 </r>
       <r>   -2.8930    1.0000 </r>
       <r>    0.4590    0.9810 </r>
       <r>    0.4590    0.9810 </r>
       <r>    1.1799    0.0013 </r>
       <r>    1.5836    0.0000 </r>
       <r>    1.5836    0.0000 </r>
       <r>    1.7254    0.0000 </r>
       <r>    1.9960    0.0000 </r>
       <r>    2.0402    0.0000 </r>
       <r>    4.5073    0.0000 </r>
       <r>    4.9444    0.0000 </r>
       <r>    5.1942    0.0000 </r>
       <r>    5.1942    0.0000 </r>
      </set>
      <set comment="kpoint 34">
       <r>   -6.9575    1.0000 </r>
       <r>   -6.6577    1.0000 </r>
       <r>   -6.6577    1.0000 </r>
       <r>   -6.4813    1.0000 </r>
       <r>   -3.9081    1.0000 </r>
       <r>   -3.7128    1.0000 </r>
       <r>   -3.7128    1.0000 </r>
       <r>   -3.3733    1.0000 </r>
       <r>    0.8998    0.1488 </r>
       <r>    1.1765    0.0014 </r>
       <r>    1.1765    0.0014 </r>
       <r>    1.6853    0.0000 </r>
       <r>    1.8849    0.0000 </r>
       <r>    1.9244    0.0000 </r>
       <r>    1.9244    0.0000 </r>
       <r>    2.2315    0.0000 </r>
       <r>    4.4163    0.0000 </r>
       <r>    4.8510    0.0000 </r>
       <r>    4.8510    0.0000 </r>
       <r>    4.8975    0.0000 </r>
      </set>
      <set comment="kpoint 35">
       <r>   -6.7600    1.0000 </r>
       <r>   -6.5839    1.0000 </r>
       <r>   -6.5839    1.0000 </r>
       <r>   -6.5839    1.0000 </r>
       <r>   -3.9615    1.0000 </r>
       <r>   -3.9615    1.0000 </r>
       <r>   -3.9615    1.0000 </r>
       <r>   -3.7668    1.0000 </r>
       <r>    1.7293    0.0000 </r>
       <r>    1.7293    0.0000 </r>
       <r>    1.7293    0.0000 </r>
       <r>    2.0200    0.0000 </r>
       <r>    2.0200    0.0000 </r>
       <r>    2.0200    0.0000 </r>
       <r>    2.1429    0.0000 </r>
       <r>    2.1429    0.0000 </r>
       <r>    4.0144    0.0000 </r>
       <r>    4.3685    0.0000 </r>
       <r>    4.3685    0.0000 </r>
       <r>    4.3685    0.0000 </r>
      </set>
     </set>
    </set>
   </array>
  </eigenvalues>
  <separator name="orbital magnetization" >
   <v name="MAGDIPOLOUT">      0.00000000      0.00000000      0.00000000</v>
  </separator>
  <dos>
   <i name="efermi">      0.75245990 </i>
   <total>
    <array>
     <dimension dim="1">gridpoints</dimension>
     <dimension dim="2">spin</dimension>
     <field>energy</field>
     <field>total</field>
     <field>integrated</field>
     <set>
      <set comment="spin 1">
       <r>   -10.8556     0.0000     0.0000 </r>
       <r>   -10.7918     0.0000     0.0000 </r>
       <r>   -10.7281     0.0000     0.0000 </r>
       <r>   -10.6643     0.0000     0.0000 </r>
       <r>   -10.6006     0.0000     0.0000 </r>
       <r>   -10.5369     0.0000     0.0000 </r>
       <r>   -10.4731     0.0000     0.0000 </r>
       <r>   -10.4094     0.0000     0.0000 </r>
       <r>   -10.3457     0.0000     0.0000 </r>
       <r>   -10.2819     0.0000     0.0000 </r>
       <r>   -10.2182     0.0000     0.0000 </r>
       <r>   -10.1544     0.0000     0.0000 </r>
       <r>   -10.0907     0.0000     0.0000 </r>
       <r>   -10.0270     0.0000     0.0000 </r>
       <r>    -9.9632     0.0000     0.0000 </r>
       <r>    -9.8995     0.0000     0.0000 </r>
       <r>    -9.8358     0.0000     0.0000 </r>
       <r>    -9.7720     0.0000     0.0000 </r>
       <r>    -9.7083     0.0000     0.0000 </r>
       <r>    -9.6445     0.0000     0.0000 </r>
       <r>    -9.5808     0.0000     0.0000 </r>
       <r>    -9.5171     0.0000     0.0000 </r>
       <r>    -9.4533     0.0000     0.0000 </r>
       <r>    -9.3896     0.0000     0.0000 </r>
       <r>    -9.3258     0.0001     0.0000 </r>
       <r>    -9.2621     0.0003     0.0000 </r>
       <r>    -9.1984     0.0012     0.0001 </r>
       <r>    -9.1346     0.0044     0.0004 </r>
       <r>    -9.0709     0.0133     0.0012 </r>
       <r>    -9.0072     0.0345     0.0034 </r>
       <r>    -8.9434     0.0762     0.0083 </r>
       <r>    -8.8797     0.1456     0.0176 </r>
       <r>    -8.8159     0.2439     0.0331 </r>
       <r>    -8.7522     0.3642     0.0563 </r>
       <r>    -8.6885     0.4933     0.0878 </r>
       <r>    -8.6247     0.6173     0.1271 </r>
       <r>    -8.5610     0.7282     0.1735 </r>
       <r>    -8.4973     0.8273     0.2263 </r>
       <r>    -8.4335     0.9205     0.2849 </r>
       <r>    -8.3698     1.0095     0.3493 </r>
       <r>    -8.3060     1.0884     0.4186 </r>
       <r>    -8.2423     1.1518     0.4921 </r>
       <r>    -8.1786     1.2040     0.5688 </r>
       <r>    -8.1148     1.2597     0.6491 </r>
       <r>    -8.0511     1.3337     0.7341 </r>
       <r>    -7.9874     1.4252     0.8249 </r>
       <r>    -7.9236     1.5119     0.9213 </r>
       <r>    -7.8599     1.5659     1.0211 </r>
       <r>    -7.7961     1.5819     1.1219 </r>
       <r>    -7.7324     1.5891     1.2232 </r>
       <r>    -7.6687     1.6318     1.3272 </r>
       <r>    -7.6049     1.7291     1.4374 </r>
       <r>    -7.5412     1.8551     1.5557 </r>
       <r>    -7.4775     1.9606     1.6806 </r>
       <r>    -7.4137     2.0168     1.8092 </r>
       <r>    -7.3500     2.0348     1.9389 </r>
       <r>    -7.2862     2.0477     2.0694 </r>
       <r>    -7.2225     2.0779     2.2018 </r>
       <r>    -7.1588     2.1272     2.3374 </r>
       <r>    -7.0950     2.1956     2.4774 </r>
       <r>    -7.0313     2.2983     2.6239 </r>
       <r>    -6.9676     2.4523     2.7802 </r>
       <r>    -6.9038     2.6459     2.9488 </r>
       <r>    -6.8401     2.8317     3.1293 </r>
       <r>    -6.7763     2.9589     3.3179 </r>
       <r>    -6.7126     3.0159     3.5101 </r>
       <r>    -6.6489     3.0382     3.7038 </r>
       <r>    -6.5851     3.0793     3.9000 </r>
       <r>    -6.5214     3.1699     4.1021 </r>
       <r>    -6.4576     3.2920     4.3119 </r>
       <r>    -6.3939     3.3877     4.5278 </r>
       <r>    -6.3302     3.4086     4.7451 </r>
       <r>    -6.2664     3.3675     4.9597 </r>
       <r>    -6.2027     3.3241     5.1716 </r>
       <r>    -6.1390     3.3059     5.3823 </r>
       <r>    -6.0752     3.2565     5.5899 </r>
       <r>    -6.0115     3.0870     5.7866 </r>
       <r>    -5.9477     2.7787     5.9637 </r>
       <r>    -5.8840     2.4220     6.1181 </r>
       <r>    -5.8203     2.1567     6.2556 </r>
       <r>    -5.7565     2.0825     6.3883 </r>
       <r>    -5.6928     2.2074     6.5290 </r>
       <r>    -5.6291     2.4448     6.6848 </r>
       <r>    -5.5653     2.6533     6.8539 </r>
       <r>    -5.5016     2.7036     7.0263 </r>
       <r>    -5.4378     2.5407     7.1882 </r>
       <r>    -5.3741     2.2004     7.3284 </r>
       <r>    -5.3104     1.7780     7.4418 </r>
       <r>    -5.2466     1.3802     7.5297 </r>
       <r>    -5.1829     1.0835     7.5988 </r>
       <r>    -5.1192     0.9140     7.6571 </r>
       <r>    -5.0554     0.8546     7.7115 </r>
       <r>    -4.9917     0.8717     7.7671 </r>
       <r>    -4.9279     0.9352     7.8267 </r>
       <r>    -4.8642     1.0188     7.8916 </r>
       <r>    -4.8005     1.0896     7.9611 </r>
       <r>    -4.7367     1.1087     8.0317 </r>
       <r>    -4.6730     1.0516     8.0988 </r>
       <r>    -4.6093     0.9294     8.1580 </r>
       <r>    -4.5455     0.7862     8.2081 </r>
       <r>    -4.4818     0.6718     8.2509 </r>
       <r>    -4.4180     0.6189     8.2904 </r>
       <r>    -4.3543     0.6489     8.3317 </r>
       <r>    -4.2906     0.7979     8.3826 </r>
       <r>    -4.2268     1.1286     8.4545 </r>
       <r>    -4.1631     1.6980     8.5628 </r>
       <r>    -4.0993     2.4916     8.7216 </r>
       <r>    -4.0356     3.3793     8.9370 </r>
       <r>    -3.9719     4.1521     9.2016 </r>
       <r>    -3.9081     4.6332     9.4969 </r>
       <r>    -3.8444     4.7722     9.8011 </r>
       <r>    -3.7807     4.6436    10.0971 </r>
       <r>    -3.7169     4.3644    10.3752 </r>
       <r>    -3.6532     4.0156    10.6312 </r>
       <r>    -3.5894     3.6384    10.8631 </r>
       <r>    -3.5257     3.2860    11.0725 </r>
       <r>    -3.4620     3.0426    11.2665 </r>
       <r>    -3.3982     2.9636    11.4554 </r>
       <r>    -3.3345     3.0030    11.6468 </r>
       <r>    -3.2708     3.0244    11.8395 </r>
       <r>    -3.2070     2.9036    12.0246 </r>
       <r>    -3.1433     2.6293    12.1922 </r>
       <r>    -3.0795     2.3105    12.3395 </r>
       <r>    -3.0158     2.0870    12.4725 </r>
       <r>    -2.9521     2.0212    12.6013 </r>
       <r>    -2.8883     2.0509    12.7320 </r>
       <r>    -2.8246     2.0390    12.8620 </r>
       <r>    -2.7609     1.8865    12.9822 </r>
       <r>    -2.6971     1.6157    13.0852 </r>
       <r>    -2.6334     1.3487    13.1712 </r>
       <r>    -2.5696     1.2095    13.2483 </r>
       <r>    -2.5059     1.2470    13.3278 </r>
       <r>    -2.4422     1.4262    13.4187 </r>
       <r>    -2.3784     1.6533    13.5240 </r>
       <r>    -2.3147     1.8090    13.6393 </r>
       <r>    -2.2510     1.7993    13.7540 </r>
       <r>    -2.1872     1.6137    13.8569 </r>
       <r>    -2.1235     1.3322    13.9418 </r>
       <r>    -2.0597     1.0675    14.0098 </r>
       <r>    -1.9960     0.9012    14.0673 </r>
       <r>    -1.9323     0.8650    14.1224 </r>
       <r>    -1.8685     0.9472    14.1828 </r>
       <r>    -1.8048     1.0914    14.2523 </r>
       <r>    -1.7410     1.2077    14.3293 </r>
       <r>    -1.6773     1.2226    14.4072 </r>
       <r>    -1.6136     1.1388    14.4798 </r>
       <r>    -1.5498     1.0422    14.5463 </r>
       <r>    -1.4861     1.0446    14.6128 </r>
       <r>    -1.4224     1.2198    14.6906 </r>
       <r>    -1.3586     1.5903    14.7919 </r>
       <r>    -1.2949     2.1495    14.9289 </r>
       <r>    -1.2311     2.8613    15.1113 </r>
       <r>    -1.1674     3.6155    15.3418 </r>
       <r>    -1.1037     4.2133    15.6103 </r>
       <r>    -1.0399     4.4620    15.8947 </r>
       <r>    -0.9762     4.3296    16.1707 </r>
       <r>    -0.9125     4.0079    16.4261 </r>
       <r>    -0.8487     3.7870    16.6675 </r>
       <r>    -0.7850     3.8277    16.9115 </r>
       <r>    -0.7212     4.0353    17.1687 </r>
       <r>    -0.6575     4.1709    17.4345 </r>
       <r>    -0.5938     4.0989    17.6958 </r>
       <r>    -0.5300     3.9161    17.9454 </r>
       <r>    -0.4663     3.8307    18.1895 </r>
       <r>    -0.4026     3.9346    18.4403 </r>
       <r>    -0.3388     4.1190    18.7029 </r>
       <r>    -0.2751     4.2105    18.9712 </r>
       <r>    -0.2113     4.1664    19.2368 </r>
       <r>    -0.1476     4.1122    19.4989 </r>
       <r>    -0.0839     4.1903    19.7660 </r>
       <r>    -0.0201     4.4037    20.0466 </r>
       <r>     0.0436     4.6294    20.3417 </r>
       <r>     0.1073     4.7687    20.6457 </r>
       <r>     0.1711     4.8490    20.9547 </r>
       <r>     0.2348     4.9679    21.2714 </r>
       <r>     0.2986     5.1655    21.6006 </r>
       <r>     0.3623     5.3748    21.9432 </r>
       <r>     0.4260     5.4885    22.2930 </r>
       <r>     0.4898     5.4555    22.6407 </r>
       <r>     0.5535     5.3177    22.9797 </r>
       <r>     0.6173     5.1744    23.3095 </r>
       <r>     0.6810     5.1059    23.6349 </r>
       <r>     0.7447     5.1079    23.9605 </r>
       <r>     0.8085     5.0914    24.2850 </r>
       <r>     0.8722     4.9709    24.6018 </r>
       <r>     0.9359     4.7722    24.9060 </r>
       <r>     0.9997     4.6364    25.2015 </r>
       <r>     1.0634     4.6858    25.5002 </r>
       <r>     1.1272     4.8831    25.8114 </r>
       <r>     1.1909     5.0444    26.1329 </r>
       <r>     1.2546     4.9917    26.4511 </r>
       <r>     1.3184     4.6869    26.7498 </r>
       <r>     1.3821     4.2452    27.0204 </r>
       <r>     1.4458     3.8614    27.2665 </r>
       <r>     1.5096     3.7122    27.5031 </r>
       <r>     1.5733     3.8625    27.7493 </r>
       <r>     1.6371     4.2149    28.0180 </r>
       <r>     1.7008     4.5580    28.3085 </r>
       <r>     1.7645     4.6948    28.6077 </r>
       <r>     1.8283     4.5464    28.8975 </r>
       <r>     1.8920     4.1657    29.1630 </r>
       <r>     1.9557     3.6831    29.3978 </r>
       <r>     2.0195     3.2445    29.6046 </r>
       <r>     2.0832     2.9634    29.7934 </r>
       <r>     2.1470     2.8843    29.9773 </r>
       <r>     2.2107     2.9578    30.1658 </r>
       <r>     2.2744     3.0521    30.3603 </r>
       <r>     2.3382     3.0153    30.5525 </r>
       <r>     2.4019     2.7635    30.7287 </r>
       <r>     2.4656     2.3337    30.8774 </r>
       <r>     2.5294     1.8608    30.9960 </r>
       <r>     2.5931     1.4972    31.0914 </r>
       <r>     2.6569     1.3269    31.1760 </r>
       <r>     2.7206     1.3230    31.2603 </r>
       <r>     2.7843     1.3777    31.3482 </r>
       <r>     2.8481     1.3812    31.4362 </r>
       <r>     2.9118     1.2916    31.5185 </r>
       <r>     2.9756     1.1431    31.5914 </r>
       <r>     3.0393     0.9969    31.6549 </r>
       <r>     3.1030     0.8897    31.7116 </r>
       <r>     3.1668     0.8200    31.7639 </r>
       <r>     3.2305     0.7676    31.8128 </r>
       <r>     3.2942     0.7161    31.8585 </r>
       <r>     3.3580     0.6619    31.9006 </r>
       <r>     3.4217     0.6133    31.9397 </r>
       <r>     3.4855     0.5892    31.9773 </r>
       <r>     3.5492     0.6159    32.0165 </r>
       <r>     3.6129     0.7134    32.0620 </r>
       <r>     3.6767     0.8786    32.1180 </r>
       <r>     3.7404     1.0802    32.1869 </r>
       <r>     3.8041     1.2741    32.2681 </r>
       <r>     3.8679     1.4328    32.3594 </r>
       <r>     3.9316     1.5632    32.4590 </r>
       <r>     3.9954     1.6920    32.5669 </r>
       <r>     4.0591     1.8315    32.6836 </r>
       <r>     4.1228     1.9658    32.8089 </r>
       <r>     4.1866     2.0792    32.9414 </r>
       <r>     4.2503     2.1942    33.0813 </r>
       <r>     4.3140     2.3706    33.2324 </r>
       <r>     4.3778     2.6531    33.4015 </r>
       <r>     4.4415     3.0137    33.5936 </r>
       <r>     4.5053     3.3476    33.8069 </r>
       <r>     4.5690     3.5433    34.0328 </r>
       <r>     4.6327     3.5810    34.2610 </r>
       <r>     4.6965     3.5771    34.4890 </r>
       <r>     4.7602     3.7216    34.7262 </r>
       <r>     4.8239     4.1365    34.9899 </r>
       <r>     4.8877     4.7595    35.2932 </r>
       <r>     4.9514     5.3562    35.6346 </r>
       <r>     5.0152     5.6728    35.9962 </r>
       <r>     5.0789     5.6070    36.3536 </r>
       <r>     5.1426     5.2580    36.6887 </r>
       <r>     5.2064     4.8276    36.9964 </r>
       <r>     5.2701     4.4777    37.2818 </r>
       <r>     5.3338     4.2514    37.5528 </r>
       <r>     5.3976     4.0934    37.8137 </r>
       <r>     5.4613     3.9314    38.0643 </r>
       <r>     5.5251     3.7378    38.3025 </r>
       <r>     5.5888     3.5158    38.5266 </r>
       <r>     5.6525     3.2518    38.7339 </r>
       <r>     5.7163     2.9205    38.9200 </r>
       <r>     5.7800     2.5426    39.0821 </r>
       <r>     5.8438     2.1970    39.2221 </r>
       <r>     5.9075     1.9533    39.3466 </r>
       <r>     5.9712     1.8085    39.4619 </r>
       <r>     6.0350     1.7046    39.5705 </r>
       <r>     6.0987     1.5868    39.6717 </r>
       <r>     6.1624     1.4287    39.7627 </r>
       <r>     6.2262     1.2212    39.8406 </r>
       <r>     6.2899     0.9679    39.9023 </r>
       <r>     6.3537     0.6921    39.9464 </r>
       <r>     6.4174     0.4355    39.9741 </r>
       <r>     6.4811     0.2364    39.9892 </r>
       <r>     6.5449     0.1090    39.9961 </r>
       <r>     6.6086     0.0423    39.9988 </r>
       <r>     6.6723     0.0137    39.9997 </r>
       <r>     6.7361     0.0037    39.9999 </r>
       <r>     6.7998     0.0008    40.0000 </r>
       <r>     6.8636     0.0002    40.0000 </r>
       <r>     6.9273     0.0000    40.0000 </r>
       <r>     6.9910     0.0000    40.0000 </r>
       <r>     7.0548     0.0000    40.0000 </r>
       <r>     7.1185     0.0000    40.0000 </r>
       <r>     7.1822     0.0000    40.0000 </r>
       <r>     7.2460     0.0000    40.0000 </r>
       <r>     7.3097     0.0000    40.0000 </r>
       <r>     7.3735     0.0000    40.0000 </r>
       <r>     7.4372     0.0000    40.0000 </r>
       <r>     7.5009     0.0000    40.0000 </r>
       <r>     7.5647     0.0000    40.0000 </r>
       <r>     7.6284     0.0000    40.0000 </r>
       <r>     7.6921     0.0000    40.0000 </r>
       <r>     7.7559     0.0000    40.0000 </r>
       <r>     7.8196     0.0000    40.0000 </r>
       <r>     7.8834     0.0000    40.0000 </r>
       <r>     7.9471     0.0000    40.0000 </r>
       <r>     8.0108     0.0000    40.0000 </r>
       <r>     8.0746     0.0000    40.0000 </r>
       <r>     8.1383     0.0000    40.0000 </r>
       <r>     8.2021     0.0000    40.0000 </r>
       <r>     8.2658     0.0000    40.0000 </r>
      </set>
     </set>
    </array>
   </total>
  </dos>
 </calculation>
 <structure name="finalpos" >
  <crystal>
   <varray name="basis" >
    <v>       5.76286300       0.00000000       0.00000000 </v>
    <v>       0.00000000       5.76286300       0.00000000 </v>
    <v>       0.00000000       0.00000000       5.76286300 </v>
   </varray>
   <i name="volume">    191.38808007 </i>
   <varray name="rec_basis" >
    <v>       0.17352486       0.00000000       0.00000000 </v>
    <v>       0.00000000       0.17352486       0.00000000 </v>
    <v>       0.00000000       0.00000000       0.17352486 </v>
   </varray>
  </crystal>
  <varray name="positions" >
   <v>       0.75000000       0.75000000       0.75000000 </v>
   <v>       0.50000000       0.00000000       0.00000000 </v>
   <v>       0.75000000       0.25000000       0.25000000 </v>
   <v>       0.50000000       0.50000000       0.50000000 </v>
   <v>       0.25000000       0.75000000       0.25000000 </v>
   <v>       0.00000000       0.00000000       0.50000000 </v>
   <v>       0.25000000       0.25000000       0.75000000 </v>
   <v>       0.00000000       0.50000000       0.00000000 </v>
  </varray>
 </structure>
</modeling>
