       N       E                     dE             d eps       ncg     rms          rms(c)
DAV:   1    -0.212006766955E+00   -0.21201E+00   -0.33030E+02 51280   0.234E+01
DAV:   2    -0.508103547969E+01   -0.48690E+01   -0.46338E+01 62760   0.148E+01
DAV:   3    -0.519554516692E+01   -0.11451E+00   -0.11392E+00 64100   0.201E+00
DAV:   4    -0.519570658253E+01   -0.16142E-03   -0.16141E-03 58000   0.717E-02
DAV:   5    -0.519570687471E+01   -0.29218E-06   -0.29217E-06 64220   0.311E-03
   1 F= -.51957069E+01 E0= -.51957069E+01  d E =-.125292E-13
