 vasp.5.3.3 18Dez12 (build Dec 13 2014 13:36:02) complex                        
  
 executed on             LinuxIFC date 2018.11.28  13:04:00
 running on   20 total cores
 distrk:  each k-point on   20 cores,    1 groups
 distr:  one band on NCORES_PER_BAND=   1 cores,   20 groups


--------------------------------------------------------------------------------------------------------


 INCAR:
 POTCAR:   PAW_PBE Zn 06Sep2000                   
 POTCAR:   PAW_PBE Te 08Apr2002                   

 ----------------------------------------------------------------------------- 
|                                                                             |
|           W    W    AA    RRRRR   N    N  II  N    N   GGGG   !!!           |
|           W    W   A  A   R    R  NN   N  II  NN   N  G    G  !!!           |
|           W    W  A    A  R    R  N N  N  II  N N  N  G       !!!           |
|           W WW W  AAAAAA  RRRRR   N  N N  II  N  N N  G  GGG   !            |
|           WW  WW  A    A  R   R   N   NN  II  N   NN  G    G                |
|           W    W  A    A  R    R  N    N  II  N    N   GGGG   !!!           |
|                                                                             |
|      For optimal performance we recommend that you set                      |
|        NPAR = 4 - approx SQRT( number of cores)                             |
|      (number of cores/NPAR must be integer)                                 |
|      This setting will greatly improve the performance of VASP for DFT.     |
|      The default NPAR=number of cores might be grossly inefficient          |
|      on modern multi-core architectures or massively parallel machines.     |
|      Do your own testing.                                                   |
|      Unfortunately you need to use the default for hybrid, GW and RPA       |
|      calculations.                                                          |
|                                                                             |
 ----------------------------------------------------------------------------- 

 POTCAR:   PAW_PBE Zn 06Sep2000                   
   VRHFIN =Zn: d10 p2                                                           
   LEXCH  = PE                                                                  
   EATOM  =  1749.0928 eV,  128.5547 Ry                                         
                                                                                
   TITEL  = PAW_PBE Zn 06Sep2000                                                
   LULTRA =        F    use ultrasoft PP ?                                      
   IUNSCR =        1    unscreen: 0-lin 1-nonlin 2-no                           
   RPACOR =    2.000    partial core radius                                     
   POMASS =   65.390; ZVAL   =   12.000    mass and valenz                      
   RCORE  =    2.300    outmost cutoff radius                                   
   RWIGS  =    2.400; RWIGS  =    1.270    wigner-seitz radius (au A)           
   ENMAX  =  276.727; ENMIN  =  207.545 eV                                      
   RCLOC  =    1.828    cutoff for local pot                                    
   LCOR   =        T    correct aug charges                                     
   LPAW   =        T    paw PP                                                  
   EAUG   =  575.892                                                            
   DEXC   =    -.003                                                            
   RMAX   =    2.772    core radius for proj-oper                               
   RAUG   =    1.300    factor for augmentation sphere                          
   RDEP   =    2.324    radius for radial grids                                 
   QCUT   =   -4.510; QGAM   =    9.020    optimization parameters              
                                                                                
   Description                                                                  
     l     E      TYP  RCUT    TYP  RCUT                                        
     2   .000     23  2.300                                                     
     2   .000     23  2.300                                                     
     0   .000     23  2.300                                                     
     0   .000     23  2.300                                                     
     1  -.200     23  2.300                                                     
     1   .000     23  2.300                                                     
     3   .000      7   .000                                                     
  local pseudopotential read in
  partial core-charges read in
  atomic valenz-charges read in
  non local Contribution for L=           2  read in
    real space projection operators read in
  non local Contribution for L=           2  read in
    real space projection operators read in
  non local Contribution for L=           0  read in
    real space projection operators read in
  non local Contribution for L=           0  read in
    real space projection operators read in
  non local Contribution for L=           1  read in
    real space projection operators read in
  non local Contribution for L=           1  read in
    real space projection operators read in
    PAW grid and wavefunctions read in
 
   number of l-projection  operators is LMAX  =           6
   number of lm-projection operators is LMMAX =          18
 
 POTCAR:   PAW_PBE Te 08Apr2002                   
   VRHFIN =Te: s2p4                                                             
   LEXCH  = PE                                                                  
   EATOM  =   223.2721 eV,   16.4100 Ry                                         
                                                                                
   TITEL  = PAW_PBE Te 08Apr2002                                                
   LULTRA =        F    use ultrasoft PP ?                                      
   IUNSCR =        1    unscreen: 0-lin 1-nonlin 2-no                           
   RPACOR =    2.200    partial core radius                                     
   POMASS =  127.600; ZVAL   =    6.000    mass and valenz                      
   RCORE  =    2.300    outmost cutoff radius                                   
   RWIGS  =    2.900; RWIGS  =    1.535    wigner-seitz radius (au A)           
   ENMAX  =  174.982; ENMIN  =  131.236 eV                                      
   ICORE  =        3    local potential                                         
   LCOR   =        T    correct aug charges                                     
   LPAW   =        T    paw PP                                                  
   EAUG   =  368.792                                                            
   DEXC   =    -.169                                                            
   RMAX   =    3.486    core radius for proj-oper                               
   RAUG   =    1.300    factor for augmentation sphere                          
   RDEP   =    2.397    radius for radial grids                                 
   QCUT   =   -3.586; QGAM   =    7.172    optimization parameters              
                                                                                
   Description                                                                  
     l     E      TYP  RCUT    TYP  RCUT                                        
     0   .000     23  2.300                                                     
     0   .000     23  2.300                                                     
     1   .000     23  2.300                                                     
     1   .000     23  2.300                                                     
     2   .000     23  2.300                                                     
     3  -.100     23  2.300                                                     
  local pseudopotential read in
  partial core-charges read in
  atomic valenz-charges read in
  non local Contribution for L=           0  read in
    real space projection operators read in
  non local Contribution for L=           0  read in
    real space projection operators read in
  non local Contribution for L=           1  read in
    real space projection operators read in
  non local Contribution for L=           1  read in
    real space projection operators read in
  non local Contribution for L=           2  read in
    real space projection operators read in
    PAW grid and wavefunctions read in
 
   number of l-projection  operators is LMAX  =           5
   number of lm-projection operators is LMMAX =          13
 

 ----------------------------------------------------------------------------- 
|                                                                             |
|  ADVICE TO THIS USER RUNNING 'VASP/VAMP'   (HEAR YOUR MASTER'S VOICE ...):  |
|                                                                             |
|      You have a (more or less) 'small supercell' and for smaller cells      |
|      it is recommended  to use the reciprocal-space projection scheme!      |
|      The real space optimization is not  efficient for small cells and it   |
|      is also less accurate ...                                              |
|      Therefore set LREAL=.FALSE. in the  INCAR file                         |
|                                                                             |
 ----------------------------------------------------------------------------- 

 Optimization of the real space projectors (new method)

 maximal supplied QI-value         = 16.25
 optimisation between [QCUT,QGAM] = [ 11.54, 23.24] = [ 37.28,151.24] Ry 
 Optimized for a Real-space Cutoff    1.49 Angstroem

   l    n(q)    QCUT    max X(q) W(low)/X(q) W(high)/X(q)  e(spline) 
   2      9    11.539     5.523    0.17E-04    0.12E-04    0.43E-07
   2      9    11.539     9.671    0.18E-03    0.96E-04    0.20E-06
   0     10    11.539    11.246    0.19E-04    0.18E-05    0.16E-07
   0     10    11.539    34.692    0.51E-04    0.25E-04    0.27E-06
   1     10    11.539     4.877    0.13E-04    0.16E-04    0.26E-07
   1     10    11.539     6.599    0.48E-04    0.86E-04    0.10E-06
 Optimization of the real space projectors (new method)

 maximal supplied QI-value         = 16.25
 optimisation between [QCUT,QGAM] = [ 11.54, 23.24] = [ 37.28,151.24] Ry 
 Optimized for a Real-space Cutoff    1.36 Angstroem

   l    n(q)    QCUT    max X(q) W(low)/X(q) W(high)/X(q)  e(spline) 
   0      9    11.539     7.090    0.13E-04    0.25E-05    0.51E-08
   0      9    11.539   101.654    0.53E-04    0.69E-04    0.12E-06
   1      9    11.539     5.276    0.20E-04    0.98E-05    0.24E-07
   1      9    11.539    81.891    0.24E-03    0.13E-04    0.15E-06
   2      9    11.539     5.599    0.30E-04    0.97E-04    0.54E-07
 PAW_PBE Zn 06Sep2000                   :
 energy of atom  1       EATOM=-1749.0928
 kinetic energy error for atom=    0.0029 (will be added to EATOM!!)
 PAW_PBE Te 08Apr2002                   :
 energy of atom  2       EATOM= -223.2721
 kinetic energy error for atom=    0.0007 (will be added to EATOM!!)
 
 
 POSCAR: MP POSCAR:                              
  positions in direct lattice
  No initial velocities read in
 exchange correlation table for  LEXCH =        8
   RHO(1)=    0.500       N(1)  =     2000
   RHO(2)=  100.500       N(2)  =     4000
 


--------------------------------------------------------------------------------------------------------


 ion  position               nearest neighbor table
   1  0.000  0.000  0.000-   2 2.68   2 2.68   2 2.68   2 2.68
   2  0.250  0.250  0.250-   1 2.68   1 2.68   1 2.68   1 2.68
 
  LATTYP: Found a face centered cubic cell.
 ALAT       =     6.1848268414
  
  Lattice vectors:
  
 A1 = (   3.7874170000,   0.0000000000,   2.1866660000)
 A2 = (   1.2624720000,   3.5708110000,   2.1866660000)
 A3 = (   0.0000000000,   0.0000000000,   4.3733330000)


Analysis of symmetry for initial positions (statically):
=====================================================================
 Subroutine PRICEL returns:
 Original cell was already a primitive cell.
 

 Routine SETGRP: Setting up the symmetry group for a 
 face centered cubic supercell.


 Subroutine GETGRP returns: Found 24 space group operations
 (whereof 24 operations were pure point group operations)
 out of a pool of 48 trial point group operations.


The static configuration has the point symmetry T_d .


Analysis of symmetry for dynamics (positions and initial velocities):
=====================================================================
 Subroutine PRICEL returns:
 Original cell was already a primitive cell.
 

 Routine SETGRP: Setting up the symmetry group for a 
 face centered cubic supercell.


 Subroutine GETGRP returns: Found 24 space group operations
 (whereof 24 operations were pure point group operations)
 out of a pool of 48 trial point group operations.


The dynamic configuration has the point symmetry T_d .


 irot  :   1
 --------------------------------------------------------------------
 isymop:   1   0   0
           0   1   0
           0   0   1

 gtrans:     0.0000000     0.0000000     0.0000000

 ptrans:     0.0000000     0.0000000     0.0000000
 rotmap:
 (   1->   1)  (   2->   2) 


 irot  :   2
 --------------------------------------------------------------------
 isymop:   0   0   1
           1   0   0
           0   1   0

 gtrans:     0.0000000     0.0000000     0.0000000

 ptrans:     0.0000000     0.0000000     0.0000000
 rotmap:
 (   1->   1)  (   2->   2) 


 irot  :   3
 --------------------------------------------------------------------
 isymop:   0   1   0
           0   0   1
           1   0   0

 gtrans:     0.0000000     0.0000000     0.0000000

 ptrans:     0.0000000     0.0000000     0.0000000
 rotmap:
 (   1->   1)  (   2->   2) 


 irot  :   4
 --------------------------------------------------------------------
 isymop:  -1  -1  -1
           0   0   1
           1   0   0

 gtrans:     0.0000000     0.0000000     0.0000000

 ptrans:     0.0000000     0.0000000     0.0000000
 rotmap:
 (   1->   1)  (   2->   2) 


 irot  :   5
 --------------------------------------------------------------------
 isymop:  -1  -1  -1
           0   1   0
           0   0   1

 gtrans:     0.0000000     0.0000000     0.0000000

 ptrans:     0.0000000     0.0000000     0.0000000
 rotmap:
 (   1->   1)  (   2->   2) 


 irot  :   6
 --------------------------------------------------------------------
 isymop:  -1  -1  -1
           1   0   0
           0   1   0

 gtrans:     0.0000000     0.0000000     0.0000000

 ptrans:     0.0000000     0.0000000     0.0000000
 rotmap:
 (   1->   1)  (   2->   2) 


 irot  :   7
 --------------------------------------------------------------------
 isymop:   0   1   0
           1   0   0
          -1  -1  -1

 gtrans:     0.0000000     0.0000000     0.0000000

 ptrans:     0.0000000     0.0000000     0.0000000
 rotmap:
 (   1->   1)  (   2->   2) 


 irot  :   8
 --------------------------------------------------------------------
 isymop:   1   0   0
           0   0   1
          -1  -1  -1

 gtrans:     0.0000000     0.0000000     0.0000000

 ptrans:     0.0000000     0.0000000     0.0000000
 rotmap:
 (   1->   1)  (   2->   2) 


 irot  :   9
 --------------------------------------------------------------------
 isymop:   0   0   1
           0   1   0
          -1  -1  -1

 gtrans:     0.0000000     0.0000000     0.0000000

 ptrans:     0.0000000     0.0000000     0.0000000
 rotmap:
 (   1->   1)  (   2->   2) 


 irot  :  10
 --------------------------------------------------------------------
 isymop:   0   0   1
          -1  -1  -1
           0   1   0

 gtrans:     0.0000000     0.0000000     0.0000000

 ptrans:     0.0000000     0.0000000     0.0000000
 rotmap:
 (   1->   1)  (   2->   2) 


 irot  :  11
 --------------------------------------------------------------------
 isymop:   0   1   0
          -1  -1  -1
           1   0   0

 gtrans:     0.0000000     0.0000000     0.0000000

 ptrans:     0.0000000     0.0000000     0.0000000
 rotmap:
 (   1->   1)  (   2->   2) 


 irot  :  12
 --------------------------------------------------------------------
 isymop:   1   0   0
          -1  -1  -1
           0   0   1

 gtrans:     0.0000000     0.0000000     0.0000000

 ptrans:     0.0000000     0.0000000     0.0000000
 rotmap:
 (   1->   1)  (   2->   2) 


 irot  :  13
 --------------------------------------------------------------------
 isymop:  -1  -1  -1
           0   1   0
           1   0   0

 gtrans:     0.0000000     0.0000000     0.0000000

 ptrans:     0.0000000     0.0000000     0.0000000
 rotmap:
 (   1->   1)  (   2->   2) 


 irot  :  14
 --------------------------------------------------------------------
 isymop:  -1  -1  -1
           1   0   0
           0   0   1

 gtrans:     0.0000000     0.0000000     0.0000000

 ptrans:     0.0000000     0.0000000     0.0000000
 rotmap:
 (   1->   1)  (   2->   2) 


 irot  :  15
 --------------------------------------------------------------------
 isymop:  -1  -1  -1
           0   0   1
           0   1   0

 gtrans:     0.0000000     0.0000000     0.0000000

 ptrans:     0.0000000     0.0000000     0.0000000
 rotmap:
 (   1->   1)  (   2->   2) 


 irot  :  16
 --------------------------------------------------------------------
 isymop:   0   1   0
           0   0   1
          -1  -1  -1

 gtrans:     0.0000000     0.0000000     0.0000000

 ptrans:     0.0000000     0.0000000     0.0000000
 rotmap:
 (   1->   1)  (   2->   2) 


 irot  :  17
 --------------------------------------------------------------------
 isymop:   1   0   0
           0   1   0
          -1  -1  -1

 gtrans:     0.0000000     0.0000000     0.0000000

 ptrans:     0.0000000     0.0000000     0.0000000
 rotmap:
 (   1->   1)  (   2->   2) 


 irot  :  18
 --------------------------------------------------------------------
 isymop:   0   0   1
           1   0   0
          -1  -1  -1

 gtrans:     0.0000000     0.0000000     0.0000000

 ptrans:     0.0000000     0.0000000     0.0000000
 rotmap:
 (   1->   1)  (   2->   2) 


 irot  :  19
 --------------------------------------------------------------------
 isymop:   1   0   0
          -1  -1  -1
           0   1   0

 gtrans:     0.0000000     0.0000000     0.0000000

 ptrans:     0.0000000     0.0000000     0.0000000
 rotmap:
 (   1->   1)  (   2->   2) 


 irot  :  20
 --------------------------------------------------------------------
 isymop:   0   0   1
          -1  -1  -1
           1   0   0

 gtrans:     0.0000000     0.0000000     0.0000000

 ptrans:     0.0000000     0.0000000     0.0000000
 rotmap:
 (   1->   1)  (   2->   2) 


 irot  :  21
 --------------------------------------------------------------------
 isymop:   0   1   0
          -1  -1  -1
           0   0   1

 gtrans:     0.0000000     0.0000000     0.0000000

 ptrans:     0.0000000     0.0000000     0.0000000
 rotmap:
 (   1->   1)  (   2->   2) 


 irot  :  22
 --------------------------------------------------------------------
 isymop:   1   0   0
           0   0   1
           0   1   0

 gtrans:     0.0000000     0.0000000     0.0000000

 ptrans:     0.0000000     0.0000000     0.0000000
 rotmap:
 (   1->   1)  (   2->   2) 


 irot  :  23
 --------------------------------------------------------------------
 isymop:   0   1   0
           1   0   0
           0   0   1

 gtrans:     0.0000000     0.0000000     0.0000000

 ptrans:     0.0000000     0.0000000     0.0000000
 rotmap:
 (   1->   1)  (   2->   2) 


 irot  :  24
 --------------------------------------------------------------------
 isymop:   0   0   1
           0   1   0
           1   0   0

 gtrans:     0.0000000     0.0000000     0.0000000

 ptrans:     0.0000000     0.0000000     0.0000000
 rotmap:
 (   1->   1)  (   2->   2) 
 
 
 KPOINTS: k-points : CUBIC - FCC                  
  interpolating k-points between supplied coordinates
  k-points in reciprocal lattice
Space group operators:
 irot       det(A)        alpha          n_x          n_y          n_z        tau_x        tau_y        tau_z
    1     1.000000     0.000000     1.000000     0.000000     0.000000     0.000000     0.000000     0.000000
    2     1.000000   120.000000    -0.471405    -0.333333    -0.816497     0.000000     0.000000     0.000000
    3     1.000000   120.000000     0.471404     0.333334     0.816497     0.000000     0.000000     0.000000
    4    -1.000000    90.000000    -0.816497    -0.577350     0.000000     0.000000     0.000000     0.000000
    5    -1.000000   180.000000     0.866025     0.000000     0.500000     0.000000     0.000000     0.000000
    6    -1.000000    90.000000     0.408248    -0.577350     0.707107     0.000000     0.000000     0.000000
    7     1.000000   180.000000     0.816497     0.577350     0.000000     0.000000     0.000000     0.000000
    8     1.000000   120.000000     0.942809    -0.333333     0.000000     0.000000     0.000000     0.000000
    9     1.000000   120.000000     0.000000    -1.000000    -0.000000     0.000000     0.000000     0.000000
   10    -1.000000    90.000000     0.816497     0.577350    -0.000000     0.000000     0.000000     0.000000
   11    -1.000000    90.000000     0.408248    -0.577350    -0.707107     0.000000     0.000000     0.000000
   12    -1.000000   179.999999     0.288675     0.816497     0.500000     0.000000     0.000000     0.000000
   13     1.000000   120.000000     0.000000     1.000000    -0.000000     0.000000     0.000000     0.000000
   14     1.000000   120.000000     0.471405     0.333333    -0.816497     0.000000     0.000000     0.000000
   15     1.000000   180.000000    -0.408248     0.577350     0.707107     0.000000     0.000000     0.000000
   16    -1.000000    90.000000    -0.408248     0.577350    -0.707107     0.000000     0.000000     0.000000
   17    -1.000000   180.000000     0.000000     0.000000     1.000000     0.000000     0.000000     0.000000
   18    -1.000000    90.000000    -0.408248     0.577350     0.707107     0.000000     0.000000     0.000000
   19     1.000000   120.000000    -0.942809     0.333333     0.000000     0.000000     0.000000     0.000000
   20     1.000000   180.000000    -0.408248     0.577350    -0.707107     0.000000     0.000000     0.000000
   21     1.000000   120.000000    -0.471404    -0.333333     0.816497     0.000000     0.000000     0.000000
   22    -1.000000   180.000000     0.288675     0.816497    -0.500000     0.000000     0.000000     0.000000
   23    -1.000000   180.000000     0.577350    -0.816497     0.000000     0.000000     0.000000     0.000000
   24    -1.000000   180.000000     0.866025     0.000000    -0.500000     0.000000     0.000000     0.000000


--------------------------------------------------------------------------------------------------------




 Dimension of arrays:
   k-points           NKPTS =    320   k-points in BZ     NKDIM =    320   number of bands    NBANDS=     80
   number of dos      NEDOS =   5000   number of ions     NIONS =      2
   non local maximal  LDIM  =      6   non local SUM 2l+1 LMDIM =     18
   total plane-waves  NPLWV =  46656
   max r-space proj   IRMAX =  10961   max aug-charges    IRDMAX=  46075
   dimension x,y,z NGX =    36 NGY =   36 NGZ =   36
   dimension x,y,z NGXF=    72 NGYF=   72 NGZF=   72
   support grid    NGXF=    72 NGYF=   72 NGZF=   72
   ions per type =               1   1
 NGX,Y,Z   is equivalent  to a cutoff of  13.68, 13.68, 13.68 a.u.
 NGXF,Y,Z  is equivalent  to a cutoff of  27.37, 27.37, 27.37 a.u.


 I would recommend the setting:
   dimension x,y,z NGX =    33 NGY =   33 NGZ =   33
 SYSTEM =  unknown system                          
 POSCAR =  MP POSCAR:                              

 Startparameter for this run:
   NWRITE =      2    write-flag & timer
   PREC   = accura    normal or accurate (medium, high low for compatibility)
   ISTART =      1    job   : 0-new  1-cont  2-samecut
   ICHARG =     11    charge: 1-file 2-atom 10-const
   ISPIN  =      1    spin polarized calculation?
   LNONCOLLINEAR =      F non collinear calculations
   LSORBIT =      F    spin-orbit coupling
   INIWAV =      1    electr: 0-lowe 1-rand  2-diag
   LASPH  =      F    aspherical Exc in radial PAW
   METAGGA=      F    non-selfconsistent MetaGGA calc.

 Electronic Relaxation 1
   ENCUT  =  520.0 eV  38.22 Ry    6.18 a.u.   8.13  8.13  8.13*2*pi/ulx,y,z
   ENINI  =  520.0     initial cutoff
   ENAUG  =  575.9 eV  augmentation charge cutoff
   NELM   =     60;   NELMIN=  2; NELMDL=  0     # of ELM steps 
   EDIFF  = 0.1E-05   stopping-criterion for ELM
   LREAL  =      T    real-space projection
   NLSPLINE    = F    spline interpolate recip. space projectors
   LCOMPAT=      F    compatible to vasp.4.4
   GGA_COMPAT  = T    GGA compatible to vasp.4.4-vasp.4.6
   LMAXPAW     = -100 max onsite density
   LMAXMIX     =    4 max onsite mixed and CHGCAR
   VOSKOWN=      0    Vosko Wilk Nusair interpolation
   ROPT   =   -0.00025  -0.00025
 Ionic relaxation
   EDIFFG = 0.1E-04   stopping-criterion for IOM
   NSW    =      0    number of steps for IOM
   NBLOCK =      1;   KBLOCK =      1    inner block; outer block 
   IBRION =     -1    ionic relax: 0-MD 1-quasi-New 2-CG
   NFREE  =      1    steps in history (QN), initial steepest desc. (CG)
   ISIF   =      3    stress and relaxation
   IWAVPR =     10    prediction:  0-non 1-charg 2-wave 3-comb
   ISYM   =      1    0-nonsym 1-usesym 2-fastsym
   LCORR  =      T    Harris-Foulkes like correction to forces

   POTIM  = 0.5000    time-step for ionic-motion
   TEIN   =    0.0    initial temperature
   TEBEG  =    0.0;   TEEND  =   0.0 temperature during run
   SMASS  =  -3.00    Nose mass-parameter (am)
   estimated Nose-frequenzy (Omega)   =  0.10E-29 period in steps =****** mass=  -0.437E-27a.u.
   SCALEE = 1.0000    scale energy and forces
   NPACO  =    256;   APACO  = 16.0  distance and # of slots for P.C.
   PSTRESS=    0.0 pullay stress

  Mass of Ions in am
   POMASS =  65.39127.60
  Ionic Valenz
   ZVAL   =  12.00  6.00
  Atomic Wigner-Seitz radii
   RWIGS  =  -1.00 -1.00
  virtual crystal weights 
   VCA    =   1.00  1.00
   NELECT =      18.0000    total number of electrons
   NUPDOWN=      -1.0000    fix difference up-down

 DOS related values:
   EMIN   = -20.00;   EMAX   = 20.00  energy-range for DOS
   EFERMI =   0.00
   ISMEAR =     0;   SIGMA  =   0.01  broadening in eV -4-tet -1-fermi 0-gaus

 Electronic relaxation 2 (details)
   IALGO  =     38    algorithm
   LDIAG  =      T    sub-space diagonalisation (order eigenvalues)
   LSUBROT=      T    optimize rotation matrix (better conditioning)
   TURBO    =      0    0=normal 1=particle mesh
   IRESTART =      0    0=no restart 2=restart with 2 vectors
   NREBOOT  =      0    no. of reboots
   NMIN     =      0    reboot dimension
   EREF     =   0.00    reference energy to select bands
   IMIX   =      4    mixing-type and parameters
     AMIX     =   0.40;   BMIX     =  1.00
     AMIX_MAG =   1.60;   BMIX_MAG =  1.00
     AMIN     =   0.10
     WC   =   100.;   INIMIX=   1;  MIXPRE=   1;  MAXMIX= -45

 Intra band minimization:
   WEIMIN = 0.0000     energy-eigenvalue tresh-hold
   EBREAK =  0.31E-08  absolut break condition
   DEPER  =   0.30     relativ break condition  

   TIME   =   0.40     timestep for ELM

  volume/ion in A,a.u.               =      29.57       199.57
  Fermi-wavevector in a.u.,A,eV,Ry     =   1.101180  2.080928 16.498377  1.212596
  Thomas-Fermi vector in A             =   2.237603
 
 Write flags
   LWAVE  =      F    write WAVECAR
   LCHARG =      F    write CHGCAR
   LVTOT  =      F    write LOCPOT, total local potential
   LVHAR  =      F    write LOCPOT, Hartree potential only
   LELF   =      F    write electronic localiz. function (ELF)
   LORBIT =     11    0 simple, 1 ext, 2 COOP (PROOUT)


 Dipole corrections
   LMONO  =      F    monopole corrections only (constant potential shift)
   LDIPOL =      F    correct potential (dipole corrections)
   IDIPOL =      0    1-x, 2-y, 3-z, 4-all directions 
   EPSILON=  1.0000000 bulk dielectric constant

 Exchange correlation treatment:
   GGA     =    --    GGA type
   LEXCH   =     8    internal setting for exchange type
   VOSKOWN=      0    Vosko Wilk Nusair interpolation
   LHFCALC =     F    Hartree Fock is set to
   LHFONE  =     F    Hartree Fock one center treatment
   AEXX    =    0.0000 exact exchange contribution

 Linear response parameters
   LEPSILON=     F    determine dielectric tensor
   LRPA    =     F    only Hartree local field effects (RPA)
   LNABLA  =     F    use nabla operator in PAW spheres
   LVEL    =     F    velocity operator in full k-point grid
   LINTERFAST=   F  fast interpolation
   KINTER  =     0    interpolate to denser k-point grid
   CSHIFT  =0.1000    complex shift for real part using Kramers Kronig
   OMEGAMAX=  -1.0    maximum frequency
   DEG_THRESHOLD= 0.2000000E-02 threshold for treating states as degnerate
   RTIME   =    0.100 relaxation time in fs

 Orbital magnetization related:
   ORBITALMAG=     F  switch on orbital magnetization
   LCHIMAG   =     F  perturbation theory with respect to B field
   DQ        =  0.001000  dq finite difference perturbation B field



--------------------------------------------------------------------------------------------------------


 Static calculation
 charge density and potential remain constant during run
 non-spin polarized calculation
 Variant of blocked Davidson
 Davidson routine will perform the subspace rotation
 perform sub-space diagonalisation
    after iterative eigenvector-optimisation
 no mixing
 using additional bands           71
 real space projection scheme for non local part
 use partial core corrections
 calculate Harris-corrections to forces 
   (improved forces if not selfconsistent)
 use gradient corrections 
 WARNING: stress and forces are not correct
  (second derivative of E(xc) not defined)
 use of overlap-Matrix (Vanderbilt PP)
 Gauss-broadening in eV      SIGMA  =   0.01


--------------------------------------------------------------------------------------------------------


  energy-cutoff  :      520.00
  volume of cell :       59.15
      direct lattice vectors                 reciprocal lattice vectors
     3.787417000  0.000000000  2.186666000     0.264032189 -0.093349451  0.000000000
     1.262472000  3.570811000  2.186666000     0.000000000  0.280048426  0.000000000
     0.000000000  0.000000000  4.373333000    -0.132016064 -0.093349466  0.228658554

  length of vectors
     4.373332337  4.373332247  4.373333000     0.280048418  0.280048426  0.280048386


 
 old parameters found on file WAVECAR:
  energy-cutoff  :      520.00
  volume of cell :       59.15
      direct lattice vectors                 reciprocal lattice vectors
     3.787417000  0.000000000  2.186666000     0.264032189 -0.093349451  0.000000000
     1.262472000  3.570811000  2.186666000     0.000000000  0.280048426  0.000000000
     0.000000000  0.000000000  4.373333000    -0.132016064 -0.093349466  0.228658554

  length of vectors

 
 k-points in units of 2pi/SCALE and weight: k-points : CUBIC - FCC                  
   0.00000000  0.00000000  0.00000000       0.003
  -0.00169251  0.00239358  0.00293152       0.003
  -0.00338503  0.00478715  0.00586304       0.003
  -0.00507754  0.00718073  0.00879456       0.003
  -0.00677005  0.00957431  0.01172608       0.003
  -0.00846257  0.01196788  0.01465760       0.003
  -0.01015508  0.01436146  0.01758912       0.003
  -0.01184760  0.01675503  0.02052064       0.003
  -0.01354011  0.01914861  0.02345216       0.003
  -0.01523262  0.02154219  0.02638368       0.003
  -0.01692514  0.02393576  0.02931520       0.003
  -0.01861765  0.02632934  0.03224672       0.003
  -0.02031016  0.02872292  0.03517824       0.003
  -0.02200268  0.03111649  0.03810976       0.003
  -0.02369519  0.03351007  0.04104128       0.003
  -0.02538770  0.03590365  0.04397280       0.003
  -0.02708022  0.03829722  0.04690432       0.003
  -0.02877273  0.04069080  0.04983584       0.003
  -0.03046525  0.04308438  0.05276736       0.003
  -0.03215776  0.04547795  0.05569888       0.003
  -0.03385027  0.04787153  0.05863040       0.003
  -0.03554279  0.05026510  0.06156192       0.003
  -0.03723530  0.05265868  0.06449344       0.003
  -0.03892781  0.05505226  0.06742496       0.003
  -0.04062033  0.05744583  0.07035648       0.003
  -0.04231284  0.05983941  0.07328800       0.003
  -0.04400535  0.06223299  0.07621952       0.003
  -0.04569787  0.06462656  0.07915104       0.003
  -0.04739038  0.06702014  0.08208256       0.003
  -0.04908290  0.06941372  0.08501408       0.003
  -0.05077541  0.07180729  0.08794560       0.003
  -0.05246792  0.07420087  0.09087712       0.003
  -0.05416044  0.07659444  0.09380864       0.003
  -0.05585295  0.07898802  0.09674016       0.003
  -0.05754546  0.08138160  0.09967168       0.003
  -0.05923798  0.08377517  0.10260320       0.003
  -0.06093049  0.08616875  0.10553472       0.003
  -0.06262300  0.08856233  0.10846624       0.003
  -0.06431552  0.09095590  0.11139776       0.003
  -0.06600803  0.09334948  0.11432928       0.003
  -0.06600803  0.09334948  0.11432928       0.003
  -0.06431552  0.09454627  0.11432928       0.003
  -0.06262300  0.09574306  0.11432928       0.003
  -0.06093049  0.09693984  0.11432928       0.003
  -0.05923798  0.09813663  0.11432928       0.003
  -0.05754546  0.09933342  0.11432928       0.003
  -0.05585295  0.10053021  0.11432928       0.003
  -0.05416043  0.10172700  0.11432928       0.003
  -0.05246792  0.10292379  0.11432928       0.003
  -0.05077541  0.10412057  0.11432928       0.003
  -0.04908289  0.10531736  0.11432928       0.003
  -0.04739038  0.10651415  0.11432928       0.003
  -0.04569786  0.10771094  0.11432928       0.003
  -0.04400535  0.10890773  0.11432928       0.003
  -0.04231284  0.11010452  0.11432928       0.003
  -0.04062032  0.11130130  0.11432928       0.003
  -0.03892781  0.11249809  0.11432928       0.003
  -0.03723529  0.11369488  0.11432928       0.003
  -0.03554278  0.11489167  0.11432928       0.003
  -0.03385027  0.11608846  0.11432928       0.003
  -0.03215775  0.11728525  0.11432928       0.003
  -0.03046524  0.11848203  0.11432928       0.003
  -0.02877272  0.11967882  0.11432928       0.003
  -0.02708021  0.12087561  0.11432928       0.003
  -0.02538770  0.12207240  0.11432928       0.003
  -0.02369518  0.12326919  0.11432928       0.003
  -0.02200267  0.12446598  0.11432928       0.003
  -0.02031015  0.12566276  0.11432928       0.003
  -0.01861764  0.12685955  0.11432928       0.003
  -0.01692513  0.12805634  0.11432928       0.003
  -0.01523261  0.12925313  0.11432928       0.003
  -0.01354010  0.13044992  0.11432928       0.003
  -0.01184758  0.13164671  0.11432928       0.003
  -0.01015507  0.13284349  0.11432928       0.003
  -0.00846256  0.13404028  0.11432928       0.003
  -0.00677004  0.13523707  0.11432928       0.003
  -0.00507753  0.13643386  0.11432928       0.003
  -0.00338501  0.13763065  0.11432928       0.003
  -0.00169250  0.13882744  0.11432928       0.003
   0.00000002  0.14002422  0.11432928       0.003
   0.00000002  0.14002422  0.11432928       0.003
   0.00126940  0.14002422  0.11359640       0.003
   0.00253879  0.14002422  0.11286352       0.003
   0.00380817  0.14002422  0.11213064       0.003
   0.00507756  0.14002422  0.11139776       0.003
   0.00634694  0.14002422  0.11066488       0.003
   0.00761633  0.14002422  0.10993200       0.003
   0.00888571  0.14002422  0.10919912       0.003
   0.01015510  0.14002422  0.10846624       0.003
   0.01142448  0.14002422  0.10773336       0.003
   0.01269387  0.14002422  0.10700048       0.003
   0.01396325  0.14002422  0.10626760       0.003
   0.01523264  0.14002422  0.10553472       0.003
   0.01650203  0.14002422  0.10480184       0.003
   0.01777141  0.14002422  0.10406896       0.003
   0.01904080  0.14002422  0.10333608       0.003
   0.02031018  0.14002422  0.10260320       0.003
   0.02157957  0.14002422  0.10187032       0.003
   0.02284895  0.14002422  0.10113744       0.003
   0.02411834  0.14002422  0.10040456       0.003
   0.02538772  0.14002422  0.09967168       0.003
   0.02665711  0.14002422  0.09893880       0.003
   0.02792649  0.14002422  0.09820592       0.003
   0.02919588  0.14002422  0.09747304       0.003
   0.03046527  0.14002422  0.09674016       0.003
   0.03173465  0.14002422  0.09600728       0.003
   0.03300404  0.14002422  0.09527440       0.003
   0.03427342  0.14002423  0.09454152       0.003
   0.03554281  0.14002423  0.09380864       0.003
   0.03681219  0.14002423  0.09307576       0.003
   0.03808158  0.14002423  0.09234288       0.003
   0.03935096  0.14002423  0.09161000       0.003
   0.04062035  0.14002423  0.09087712       0.003
   0.04188973  0.14002423  0.09014424       0.003
   0.04315912  0.14002423  0.08941136       0.003
   0.04442850  0.14002423  0.08867848       0.003
   0.04569789  0.14002423  0.08794560       0.003
   0.04696728  0.14002423  0.08721272       0.003
   0.04823666  0.14002423  0.08647984       0.003
   0.04950605  0.14002423  0.08574696       0.003
   0.04950605  0.14002423  0.08574696       0.003
   0.04823666  0.13643386  0.08354832       0.003
   0.04696728  0.13284350  0.08134968       0.003
   0.04569789  0.12925313  0.07915104       0.003
   0.04442850  0.12566277  0.07695240       0.003
   0.04315912  0.12207240  0.07475376       0.003
   0.04188973  0.11848204  0.07255512       0.003
   0.04062035  0.11489167  0.07035648       0.003
   0.03935096  0.11130131  0.06815784       0.003
   0.03808157  0.10771094  0.06595920       0.003
   0.03681219  0.10412058  0.06376056       0.003
   0.03554280  0.10053021  0.06156192       0.003
   0.03427342  0.09693985  0.05936328       0.003
   0.03300403  0.09334948  0.05716464       0.003
   0.03173465  0.08975912  0.05496600       0.003
   0.03046526  0.08616875  0.05276736       0.003
   0.02919587  0.08257839  0.05056872       0.003
   0.02792649  0.07898802  0.04837008       0.003
   0.02665710  0.07539766  0.04617144       0.003
   0.02538772  0.07180730  0.04397280       0.003
   0.02411833  0.06821693  0.04177416       0.003
   0.02284894  0.06462657  0.03957552       0.003
   0.02157956  0.06103620  0.03737688       0.003
   0.02031017  0.05744584  0.03517824       0.003
   0.01904079  0.05385547  0.03297960       0.003
   0.01777140  0.05026511  0.03078096       0.003
   0.01650202  0.04667474  0.02858232       0.003
   0.01523263  0.04308438  0.02638368       0.003
   0.01396324  0.03949401  0.02418504       0.003
   0.01269386  0.03590365  0.02198640       0.003
   0.01142447  0.03231328  0.01978776       0.003
   0.01015509  0.02872292  0.01758912       0.003
   0.00888570  0.02513255  0.01539048       0.003
   0.00761631  0.02154219  0.01319184       0.003
   0.00634693  0.01795182  0.01099320       0.003
   0.00507754  0.01436146  0.00879456       0.003
   0.00380816  0.01077109  0.00659592       0.003
   0.00253877  0.00718073  0.00439728       0.003
   0.00126939  0.00359036  0.00219864       0.003
   0.00000000  0.00000000  0.00000000       0.003
   0.00000000  0.00000000  0.00000000       0.003
   0.00169251  0.00119679  0.00293152       0.003
   0.00338503  0.00239358  0.00586304       0.003
   0.00507754  0.00359037  0.00879456       0.003
   0.00677006  0.00478715  0.01172608       0.003
   0.00846257  0.00598394  0.01465760       0.003
   0.01015509  0.00718073  0.01758912       0.003
   0.01184760  0.00837752  0.02052064       0.003
   0.01354012  0.00957431  0.02345216       0.003
   0.01523263  0.01077110  0.02638368       0.003
   0.01692514  0.01196789  0.02931520       0.003
   0.01861766  0.01316467  0.03224672       0.003
   0.02031017  0.01436146  0.03517824       0.003
   0.02200269  0.01555825  0.03810976       0.003
   0.02369520  0.01675504  0.04104128       0.003
   0.02538772  0.01795183  0.04397280       0.003
   0.02708023  0.01914862  0.04690432       0.003
   0.02877275  0.02034541  0.04983584       0.003
   0.03046526  0.02154219  0.05276736       0.003
   0.03215777  0.02273898  0.05569888       0.003
   0.03385029  0.02393577  0.05863040       0.003
   0.03554280  0.02513256  0.06156192       0.003
   0.03723532  0.02632935  0.06449344       0.003
   0.03892783  0.02752614  0.06742496       0.003
   0.04062035  0.02872293  0.07035648       0.003
   0.04231286  0.02991971  0.07328800       0.003
   0.04400537  0.03111650  0.07621952       0.003
   0.04569789  0.03231329  0.07915104       0.003
   0.04739040  0.03351008  0.08208256       0.003
   0.04908292  0.03470687  0.08501408       0.003
   0.05077543  0.03590366  0.08794560       0.003
   0.05246795  0.03710045  0.09087712       0.003
   0.05416046  0.03829723  0.09380864       0.003
   0.05585298  0.03949402  0.09674016       0.003
   0.05754549  0.04069081  0.09967168       0.003
   0.05923800  0.04188760  0.10260320       0.003
   0.06093052  0.04308439  0.10553472       0.003
   0.06262303  0.04428118  0.10846624       0.003
   0.06431555  0.04547797  0.11139776       0.003
   0.06600806  0.04667475  0.11432928       0.003
   0.06600806  0.04667475  0.11432928       0.003
   0.06389242  0.04787154  0.11506216       0.003
   0.06177678  0.04906833  0.11579504       0.003
   0.05966113  0.05026512  0.11652792       0.003
   0.05754549  0.05146191  0.11726080       0.003
   0.05542985  0.05265869  0.11799368       0.003
   0.05331421  0.05385548  0.11872656       0.003
   0.05119857  0.05505227  0.11945944       0.003
   0.04908292  0.05624906  0.12019232       0.003
   0.04696728  0.05744585  0.12092520       0.003
   0.04485164  0.05864263  0.12165808       0.003
   0.04273600  0.05983942  0.12239096       0.003
   0.04062035  0.06103621  0.12312384       0.003
   0.03850471  0.06223300  0.12385672       0.003
   0.03638907  0.06342979  0.12458960       0.003
   0.03427343  0.06462657  0.12532248       0.003
   0.03215778  0.06582336  0.12605536       0.003
   0.03004214  0.06702015  0.12678824       0.003
   0.02792650  0.06821694  0.12752112       0.003
   0.02581086  0.06941373  0.12825400       0.003
   0.02369521  0.07061051  0.12898688       0.003
   0.02157957  0.07180730  0.12971976       0.003
   0.01946393  0.07300409  0.13045264       0.003
   0.01734829  0.07420088  0.13118552       0.003
   0.01523264  0.07539767  0.13191840       0.003
   0.01311700  0.07659445  0.13265128       0.003
   0.01100136  0.07779124  0.13338416       0.003
   0.00888572  0.07898803  0.13411704       0.003
   0.00677007  0.08018482  0.13484992       0.003
   0.00465443  0.08138161  0.13558280       0.003
   0.00253879  0.08257839  0.13631568       0.003
   0.00042315  0.08377518  0.13704856       0.003
  -0.00169250  0.08497197  0.13778144       0.003
  -0.00380814  0.08616876  0.13851432       0.003
  -0.00592378  0.08736555  0.13924720       0.003
  -0.00803942  0.08856234  0.13998008       0.003
  -0.01015507  0.08975912  0.14071296       0.003
  -0.01227071  0.09095591  0.14144584       0.003
  -0.01438635  0.09215270  0.14217872       0.003
  -0.01650199  0.09334949  0.14291160       0.003
  -0.01650199  0.09334949  0.14291160       0.003
  -0.01607886  0.09454628  0.14217872       0.003
  -0.01565574  0.09574306  0.14144584       0.003
  -0.01523261  0.09693985  0.14071296       0.003
  -0.01480948  0.09813664  0.13998008       0.003
  -0.01438635  0.09933343  0.13924720       0.003
  -0.01396322  0.10053022  0.13851432       0.003
  -0.01354009  0.10172700  0.13778144       0.003
  -0.01311697  0.10292379  0.13704856       0.003
  -0.01269384  0.10412058  0.13631568       0.003
  -0.01227071  0.10531737  0.13558280       0.003
  -0.01184758  0.10651416  0.13484992       0.003
  -0.01142445  0.10771094  0.13411704       0.003
  -0.01100132  0.10890773  0.13338416       0.003
  -0.01057820  0.11010452  0.13265128       0.003
  -0.01015507  0.11130131  0.13191840       0.003
  -0.00973194  0.11249810  0.13118552       0.003
  -0.00930881  0.11369489  0.13045264       0.003
  -0.00888568  0.11489167  0.12971976       0.003
  -0.00846255  0.11608846  0.12898688       0.003
  -0.00803942  0.11728525  0.12825400       0.003
  -0.00761630  0.11848204  0.12752112       0.003
  -0.00719317  0.11967883  0.12678824       0.003
  -0.00677004  0.12087561  0.12605536       0.003
  -0.00634691  0.12207240  0.12532248       0.003
  -0.00592378  0.12326919  0.12458960       0.003
  -0.00550065  0.12446598  0.12385672       0.003
  -0.00507753  0.12566277  0.12312384       0.003
  -0.00465440  0.12685955  0.12239096       0.003
  -0.00423127  0.12805634  0.12165808       0.003
  -0.00380814  0.12925313  0.12092520       0.003
  -0.00338501  0.13044992  0.12019232       0.003
  -0.00296188  0.13164671  0.11945944       0.003
  -0.00253876  0.13284349  0.11872656       0.003
  -0.00211563  0.13404028  0.11799368       0.003
  -0.00169250  0.13523707  0.11726080       0.003
  -0.00126937  0.13643386  0.11652792       0.003
  -0.00084624  0.13763065  0.11579504       0.003
  -0.00042311  0.13882744  0.11506216       0.003
   0.00000002  0.14002422  0.11432928       0.003
   0.00000002  0.14002422  0.11432928       0.003
   0.00169253  0.13763065  0.11432928       0.003
   0.00338504  0.13523707  0.11432928       0.003
   0.00507756  0.13284350  0.11432928       0.003
   0.00677007  0.13044992  0.11432928       0.003
   0.00846259  0.12805634  0.11432928       0.003
   0.01015510  0.12566277  0.11432928       0.003
   0.01184761  0.12326919  0.11432928       0.003
   0.01354013  0.12087561  0.11432928       0.003
   0.01523264  0.11848204  0.11432928       0.003
   0.01692516  0.11608846  0.11432928       0.003
   0.01861767  0.11369489  0.11432928       0.003
   0.02031018  0.11130131  0.11432928       0.003
   0.02200270  0.10890773  0.11432928       0.003
   0.02369521  0.10651416  0.11432928       0.003
   0.02538773  0.10412058  0.11432928       0.003
   0.02708024  0.10172701  0.11432928       0.003
   0.02877275  0.09933343  0.11432928       0.003
   0.03046527  0.09693985  0.11432928       0.003
   0.03215778  0.09454628  0.11432928       0.003
   0.03385030  0.09215270  0.11432928       0.003
   0.03554281  0.08975912  0.11432928       0.003
   0.03723532  0.08736555  0.11432928       0.003
   0.03892784  0.08497197  0.11432928       0.003
   0.04062035  0.08257840  0.11432928       0.003
   0.04231287  0.08018482  0.11432928       0.003
   0.04400538  0.07779124  0.11432928       0.003
   0.04569789  0.07539767  0.11432928       0.003
   0.04739041  0.07300409  0.11432928       0.003
   0.04908292  0.07061052  0.11432928       0.003
   0.05077544  0.06821694  0.11432928       0.003
   0.05246795  0.06582336  0.11432928       0.003
   0.05416046  0.06342979  0.11432928       0.003
   0.05585298  0.06103621  0.11432928       0.003
   0.05754549  0.05864264  0.11432928       0.003
   0.05923801  0.05624906  0.11432928       0.003
   0.06093052  0.05385548  0.11432928       0.003
   0.06262303  0.05146191  0.11432928       0.003
   0.06431555  0.04906833  0.11432928       0.003
   0.06600806  0.04667475  0.11432928       0.003
 
 k-points in reciprocal lattice and weights: k-points : CUBIC - FCC                  
   0.00000000  0.00000000  0.00000000       0.003
   0.00000000  0.01282051  0.01282051       0.003
   0.00000000  0.02564103  0.02564103       0.003
   0.00000000  0.03846154  0.03846154       0.003
   0.00000000  0.05128205  0.05128205       0.003
   0.00000000  0.06410256  0.06410256       0.003
   0.00000000  0.07692308  0.07692308       0.003
   0.00000000  0.08974359  0.08974359       0.003
   0.00000000  0.10256410  0.10256410       0.003
   0.00000000  0.11538462  0.11538462       0.003
   0.00000000  0.12820513  0.12820513       0.003
   0.00000000  0.14102564  0.14102564       0.003
   0.00000000  0.15384615  0.15384615       0.003
   0.00000000  0.16666667  0.16666667       0.003
   0.00000000  0.17948718  0.17948718       0.003
   0.00000000  0.19230769  0.19230769       0.003
   0.00000000  0.20512821  0.20512821       0.003
   0.00000000  0.21794872  0.21794872       0.003
   0.00000000  0.23076923  0.23076923       0.003
   0.00000000  0.24358974  0.24358974       0.003
   0.00000000  0.25641026  0.25641026       0.003
   0.00000000  0.26923077  0.26923077       0.003
   0.00000000  0.28205128  0.28205128       0.003
   0.00000000  0.29487179  0.29487179       0.003
   0.00000000  0.30769231  0.30769231       0.003
   0.00000000  0.32051282  0.32051282       0.003
   0.00000000  0.33333333  0.33333333       0.003
   0.00000000  0.34615385  0.34615385       0.003
   0.00000000  0.35897436  0.35897436       0.003
   0.00000000  0.37179487  0.37179487       0.003
   0.00000000  0.38461538  0.38461538       0.003
   0.00000000  0.39743590  0.39743590       0.003
   0.00000000  0.41025641  0.41025641       0.003
   0.00000000  0.42307692  0.42307692       0.003
   0.00000000  0.43589744  0.43589744       0.003
   0.00000000  0.44871795  0.44871795       0.003
   0.00000000  0.46153846  0.46153846       0.003
   0.00000000  0.47435897  0.47435897       0.003
   0.00000000  0.48717949  0.48717949       0.003
   0.00000000  0.50000000  0.50000000       0.003
   0.00000000  0.50000000  0.50000000       0.003
   0.00641026  0.50641026  0.50000000       0.003
   0.01282051  0.51282051  0.50000000       0.003
   0.01923077  0.51923077  0.50000000       0.003
   0.02564103  0.52564103  0.50000000       0.003
   0.03205128  0.53205128  0.50000000       0.003
   0.03846154  0.53846154  0.50000000       0.003
   0.04487179  0.54487179  0.50000000       0.003
   0.05128205  0.55128205  0.50000000       0.003
   0.05769231  0.55769231  0.50000000       0.003
   0.06410256  0.56410256  0.50000000       0.003
   0.07051282  0.57051282  0.50000000       0.003
   0.07692308  0.57692308  0.50000000       0.003
   0.08333333  0.58333333  0.50000000       0.003
   0.08974359  0.58974359  0.50000000       0.003
   0.09615385  0.59615385  0.50000000       0.003
   0.10256410  0.60256410  0.50000000       0.003
   0.10897436  0.60897436  0.50000000       0.003
   0.11538462  0.61538462  0.50000000       0.003
   0.12179487  0.62179487  0.50000000       0.003
   0.12820513  0.62820513  0.50000000       0.003
   0.13461538  0.63461538  0.50000000       0.003
   0.14102564  0.64102564  0.50000000       0.003
   0.14743590  0.64743590  0.50000000       0.003
   0.15384615  0.65384615  0.50000000       0.003
   0.16025641  0.66025641  0.50000000       0.003
   0.16666667  0.66666667  0.50000000       0.003
   0.17307692  0.67307692  0.50000000       0.003
   0.17948718  0.67948718  0.50000000       0.003
   0.18589744  0.68589744  0.50000000       0.003
   0.19230769  0.69230769  0.50000000       0.003
   0.19871795  0.69871795  0.50000000       0.003
   0.20512821  0.70512821  0.50000000       0.003
   0.21153846  0.71153846  0.50000000       0.003
   0.21794872  0.71794872  0.50000000       0.003
   0.22435897  0.72435897  0.50000000       0.003
   0.23076923  0.73076923  0.50000000       0.003
   0.23717949  0.73717949  0.50000000       0.003
   0.24358974  0.74358974  0.50000000       0.003
   0.25000000  0.75000000  0.50000000       0.003
   0.25000000  0.75000000  0.50000000       0.003
   0.25320513  0.75000000  0.49679487       0.003
   0.25641026  0.75000000  0.49358974       0.003
   0.25961538  0.75000000  0.49038462       0.003
   0.26282051  0.75000000  0.48717949       0.003
   0.26602564  0.75000000  0.48397436       0.003
   0.26923077  0.75000000  0.48076923       0.003
   0.27243590  0.75000000  0.47756410       0.003
   0.27564103  0.75000000  0.47435897       0.003
   0.27884615  0.75000000  0.47115385       0.003
   0.28205128  0.75000000  0.46794872       0.003
   0.28525641  0.75000000  0.46474359       0.003
   0.28846154  0.75000000  0.46153846       0.003
   0.29166667  0.75000000  0.45833333       0.003
   0.29487179  0.75000000  0.45512821       0.003
   0.29807692  0.75000000  0.45192308       0.003
   0.30128205  0.75000000  0.44871795       0.003
   0.30448718  0.75000000  0.44551282       0.003
   0.30769231  0.75000000  0.44230769       0.003
   0.31089744  0.75000000  0.43910256       0.003
   0.31410256  0.75000000  0.43589744       0.003
   0.31730769  0.75000000  0.43269231       0.003
   0.32051282  0.75000000  0.42948718       0.003
   0.32371795  0.75000000  0.42628205       0.003
   0.32692308  0.75000000  0.42307692       0.003
   0.33012821  0.75000000  0.41987179       0.003
   0.33333333  0.75000000  0.41666667       0.003
   0.33653846  0.75000000  0.41346154       0.003
   0.33974359  0.75000000  0.41025641       0.003
   0.34294872  0.75000000  0.40705128       0.003
   0.34615385  0.75000000  0.40384615       0.003
   0.34935897  0.75000000  0.40064103       0.003
   0.35256410  0.75000000  0.39743590       0.003
   0.35576923  0.75000000  0.39423077       0.003
   0.35897436  0.75000000  0.39102564       0.003
   0.36217949  0.75000000  0.38782051       0.003
   0.36538462  0.75000000  0.38461538       0.003
   0.36858974  0.75000000  0.38141026       0.003
   0.37179487  0.75000000  0.37820513       0.003
   0.37500000  0.75000000  0.37500000       0.003
   0.37500000  0.75000000  0.37500000       0.003
   0.36538462  0.73076923  0.36538462       0.003
   0.35576923  0.71153846  0.35576923       0.003
   0.34615385  0.69230769  0.34615385       0.003
   0.33653846  0.67307692  0.33653846       0.003
   0.32692308  0.65384615  0.32692308       0.003
   0.31730769  0.63461538  0.31730769       0.003
   0.30769231  0.61538462  0.30769231       0.003
   0.29807692  0.59615385  0.29807692       0.003
   0.28846154  0.57692308  0.28846154       0.003
   0.27884615  0.55769231  0.27884615       0.003
   0.26923077  0.53846154  0.26923077       0.003
   0.25961538  0.51923077  0.25961538       0.003
   0.25000000  0.50000000  0.25000000       0.003
   0.24038462  0.48076923  0.24038462       0.003
   0.23076923  0.46153846  0.23076923       0.003
   0.22115385  0.44230769  0.22115385       0.003
   0.21153846  0.42307692  0.21153846       0.003
   0.20192308  0.40384615  0.20192308       0.003
   0.19230769  0.38461538  0.19230769       0.003
   0.18269231  0.36538462  0.18269231       0.003
   0.17307692  0.34615385  0.17307692       0.003
   0.16346154  0.32692308  0.16346154       0.003
   0.15384615  0.30769231  0.15384615       0.003
   0.14423077  0.28846154  0.14423077       0.003
   0.13461538  0.26923077  0.13461538       0.003
   0.12500000  0.25000000  0.12500000       0.003
   0.11538462  0.23076923  0.11538462       0.003
   0.10576923  0.21153846  0.10576923       0.003
   0.09615385  0.19230769  0.09615385       0.003
   0.08653846  0.17307692  0.08653846       0.003
   0.07692308  0.15384615  0.07692308       0.003
   0.06730769  0.13461538  0.06730769       0.003
   0.05769231  0.11538462  0.05769231       0.003
   0.04807692  0.09615385  0.04807692       0.003
   0.03846154  0.07692308  0.03846154       0.003
   0.02884615  0.05769231  0.02884615       0.003
   0.01923077  0.03846154  0.01923077       0.003
   0.00961538  0.01923077  0.00961538       0.003
   0.00000000  0.00000000  0.00000000       0.003
   0.00000000  0.00000000  0.00000000       0.003
   0.01282051  0.01282051  0.01282051       0.003
   0.02564103  0.02564103  0.02564103       0.003
   0.03846154  0.03846154  0.03846154       0.003
   0.05128205  0.05128205  0.05128205       0.003
   0.06410256  0.06410256  0.06410256       0.003
   0.07692308  0.07692308  0.07692308       0.003
   0.08974359  0.08974359  0.08974359       0.003
   0.10256410  0.10256410  0.10256410       0.003
   0.11538462  0.11538462  0.11538462       0.003
   0.12820513  0.12820513  0.12820513       0.003
   0.14102564  0.14102564  0.14102564       0.003
   0.15384615  0.15384615  0.15384615       0.003
   0.16666667  0.16666667  0.16666667       0.003
   0.17948718  0.17948718  0.17948718       0.003
   0.19230769  0.19230769  0.19230769       0.003
   0.20512821  0.20512821  0.20512821       0.003
   0.21794872  0.21794872  0.21794872       0.003
   0.23076923  0.23076923  0.23076923       0.003
   0.24358974  0.24358974  0.24358974       0.003
   0.25641026  0.25641026  0.25641026       0.003
   0.26923077  0.26923077  0.26923077       0.003
   0.28205128  0.28205128  0.28205128       0.003
   0.29487179  0.29487179  0.29487179       0.003
   0.30769231  0.30769231  0.30769231       0.003
   0.32051282  0.32051282  0.32051282       0.003
   0.33333333  0.33333333  0.33333333       0.003
   0.34615385  0.34615385  0.34615385       0.003
   0.35897436  0.35897436  0.35897436       0.003
   0.37179487  0.37179487  0.37179487       0.003
   0.38461538  0.38461538  0.38461538       0.003
   0.39743590  0.39743590  0.39743590       0.003
   0.41025641  0.41025641  0.41025641       0.003
   0.42307692  0.42307692  0.42307692       0.003
   0.43589744  0.43589744  0.43589744       0.003
   0.44871795  0.44871795  0.44871795       0.003
   0.46153846  0.46153846  0.46153846       0.003
   0.47435897  0.47435897  0.47435897       0.003
   0.48717949  0.48717949  0.48717949       0.003
   0.50000000  0.50000000  0.50000000       0.003
   0.50000000  0.50000000  0.50000000       0.003
   0.49358974  0.50320513  0.50320513       0.003
   0.48717949  0.50641026  0.50641026       0.003
   0.48076923  0.50961538  0.50961538       0.003
   0.47435897  0.51282051  0.51282051       0.003
   0.46794872  0.51602564  0.51602564       0.003
   0.46153846  0.51923077  0.51923077       0.003
   0.45512821  0.52243590  0.52243590       0.003
   0.44871795  0.52564103  0.52564103       0.003
   0.44230769  0.52884615  0.52884615       0.003
   0.43589744  0.53205128  0.53205128       0.003
   0.42948718  0.53525641  0.53525641       0.003
   0.42307692  0.53846154  0.53846154       0.003
   0.41666667  0.54166667  0.54166667       0.003
   0.41025641  0.54487179  0.54487179       0.003
   0.40384615  0.54807692  0.54807692       0.003
   0.39743590  0.55128205  0.55128205       0.003
   0.39102564  0.55448718  0.55448718       0.003
   0.38461538  0.55769231  0.55769231       0.003
   0.37820513  0.56089744  0.56089744       0.003
   0.37179487  0.56410256  0.56410256       0.003
   0.36538462  0.56730769  0.56730769       0.003
   0.35897436  0.57051282  0.57051282       0.003
   0.35256410  0.57371795  0.57371795       0.003
   0.34615385  0.57692308  0.57692308       0.003
   0.33974359  0.58012821  0.58012821       0.003
   0.33333333  0.58333333  0.58333333       0.003
   0.32692308  0.58653846  0.58653846       0.003
   0.32051282  0.58974359  0.58974359       0.003
   0.31410256  0.59294872  0.59294872       0.003
   0.30769231  0.59615385  0.59615385       0.003
   0.30128205  0.59935897  0.59935897       0.003
   0.29487179  0.60256410  0.60256410       0.003
   0.28846154  0.60576923  0.60576923       0.003
   0.28205128  0.60897436  0.60897436       0.003
   0.27564103  0.61217949  0.61217949       0.003
   0.26923077  0.61538462  0.61538462       0.003
   0.26282051  0.61858974  0.61858974       0.003
   0.25641026  0.62179487  0.62179487       0.003
   0.25000000  0.62500000  0.62500000       0.003
   0.25000000  0.62500000  0.62500000       0.003
   0.25000000  0.62820513  0.62179487       0.003
   0.25000000  0.63141026  0.61858974       0.003
   0.25000000  0.63461538  0.61538462       0.003
   0.25000000  0.63782051  0.61217949       0.003
   0.25000000  0.64102564  0.60897436       0.003
   0.25000000  0.64423077  0.60576923       0.003
   0.25000000  0.64743590  0.60256410       0.003
   0.25000000  0.65064103  0.59935897       0.003
   0.25000000  0.65384615  0.59615385       0.003
   0.25000000  0.65705128  0.59294872       0.003
   0.25000000  0.66025641  0.58974359       0.003
   0.25000000  0.66346154  0.58653846       0.003
   0.25000000  0.66666667  0.58333333       0.003
   0.25000000  0.66987179  0.58012821       0.003
   0.25000000  0.67307692  0.57692308       0.003
   0.25000000  0.67628205  0.57371795       0.003
   0.25000000  0.67948718  0.57051282       0.003
   0.25000000  0.68269231  0.56730769       0.003
   0.25000000  0.68589744  0.56410256       0.003
   0.25000000  0.68910256  0.56089744       0.003
   0.25000000  0.69230769  0.55769231       0.003
   0.25000000  0.69551282  0.55448718       0.003
   0.25000000  0.69871795  0.55128205       0.003
   0.25000000  0.70192308  0.54807692       0.003
   0.25000000  0.70512821  0.54487179       0.003
   0.25000000  0.70833333  0.54166667       0.003
   0.25000000  0.71153846  0.53846154       0.003
   0.25000000  0.71474359  0.53525641       0.003
   0.25000000  0.71794872  0.53205128       0.003
   0.25000000  0.72115385  0.52884615       0.003
   0.25000000  0.72435897  0.52564103       0.003
   0.25000000  0.72756410  0.52243590       0.003
   0.25000000  0.73076923  0.51923077       0.003
   0.25000000  0.73397436  0.51602564       0.003
   0.25000000  0.73717949  0.51282051       0.003
   0.25000000  0.74038462  0.50961538       0.003
   0.25000000  0.74358974  0.50641026       0.003
   0.25000000  0.74679487  0.50320513       0.003
   0.25000000  0.75000000  0.50000000       0.003
   0.25000000  0.75000000  0.50000000       0.003
   0.25641026  0.74358974  0.50000000       0.003
   0.26282051  0.73717949  0.50000000       0.003
   0.26923077  0.73076923  0.50000000       0.003
   0.27564103  0.72435897  0.50000000       0.003
   0.28205128  0.71794872  0.50000000       0.003
   0.28846154  0.71153846  0.50000000       0.003
   0.29487179  0.70512821  0.50000000       0.003
   0.30128205  0.69871795  0.50000000       0.003
   0.30769231  0.69230769  0.50000000       0.003
   0.31410256  0.68589744  0.50000000       0.003
   0.32051282  0.67948718  0.50000000       0.003
   0.32692308  0.67307692  0.50000000       0.003
   0.33333333  0.66666667  0.50000000       0.003
   0.33974359  0.66025641  0.50000000       0.003
   0.34615385  0.65384615  0.50000000       0.003
   0.35256410  0.64743590  0.50000000       0.003
   0.35897436  0.64102564  0.50000000       0.003
   0.36538462  0.63461538  0.50000000       0.003
   0.37179487  0.62820513  0.50000000       0.003
   0.37820513  0.62179487  0.50000000       0.003
   0.38461538  0.61538462  0.50000000       0.003
   0.39102564  0.60897436  0.50000000       0.003
   0.39743590  0.60256410  0.50000000       0.003
   0.40384615  0.59615385  0.50000000       0.003
   0.41025641  0.58974359  0.50000000       0.003
   0.41666667  0.58333333  0.50000000       0.003
   0.42307692  0.57692308  0.50000000       0.003
   0.42948718  0.57051282  0.50000000       0.003
   0.43589744  0.56410256  0.50000000       0.003
   0.44230769  0.55769231  0.50000000       0.003
   0.44871795  0.55128205  0.50000000       0.003
   0.45512821  0.54487179  0.50000000       0.003
   0.46153846  0.53846154  0.50000000       0.003
   0.46794872  0.53205128  0.50000000       0.003
   0.47435897  0.52564103  0.50000000       0.003
   0.48076923  0.51923077  0.50000000       0.003
   0.48717949  0.51282051  0.50000000       0.003
   0.49358974  0.50641026  0.50000000       0.003
   0.50000000  0.50000000  0.50000000       0.003
 
 position of ions in fractional coordinates (direct lattice) 
   0.00000000  0.00000000  0.00000000
   0.25000000  0.25000000  0.25000000
 
 position of ions in cartesian coordinates  (Angst):
   0.00000000  0.00000000  0.00000000
   1.26247225  0.89270275  2.18666625
 


--------------------------------------------------------------------------------------------------------


 k-point  1 :   0.0000 0.0000 0.0000  plane waves:    1639
 k-point  2 :   0.0000 0.0128 0.0128  plane waves:    1627
 k-point  3 :   0.0000 0.0256 0.0256  plane waves:    1619
 k-point  4 :   0.0000 0.0385 0.0385  plane waves:    1595
 k-point  5 :   0.0000 0.0513 0.0513  plane waves:    1587
 k-point  6 :   0.0000 0.0641 0.0641  plane waves:    1579
 k-point  7 :   0.0000 0.0769 0.0769  plane waves:    1579
 k-point  8 :   0.0000 0.0897 0.0897  plane waves:    1579
 k-point  9 :   0.0000 0.1026 0.1026  plane waves:    1575
 k-point 10 :   0.0000 0.1154 0.1154  plane waves:    1575
 k-point 11 :   0.0000 0.1282 0.1282  plane waves:    1579
 k-point 12 :   0.0000 0.1410 0.1410  plane waves:    1575
 k-point 13 :   0.0000 0.1538 0.1538  plane waves:    1575
 k-point 14 :   0.0000 0.1667 0.1667  plane waves:    1591
 k-point 15 :   0.0000 0.1795 0.1795  plane waves:    1591
 k-point 16 :   0.0000 0.1923 0.1923  plane waves:    1599
 k-point 17 :   0.0000 0.2051 0.2051  plane waves:    1607
 k-point 18 :   0.0000 0.2179 0.2179  plane waves:    1603
 k-point 19 :   0.0000 0.2308 0.2308  plane waves:    1603
 k-point 20 :   0.0000 0.2436 0.2436  plane waves:    1603
 k-point 21 :   0.0000 0.2564 0.2564  plane waves:    1596
 k-point 22 :   0.0000 0.2692 0.2692  plane waves:    1596
 k-point 23 :   0.0000 0.2821 0.2821  plane waves:    1596
 k-point 24 :   0.0000 0.2949 0.2949  plane waves:    1596
 k-point 25 :   0.0000 0.3077 0.3077  plane waves:    1588
 k-point 26 :   0.0000 0.3205 0.3205  plane waves:    1580
 k-point 27 :   0.0000 0.3333 0.3333  plane waves:    1580
 k-point 28 :   0.0000 0.3462 0.3462  plane waves:    1592
 k-point 29 :   0.0000 0.3590 0.3590  plane waves:    1600
 k-point 30 :   0.0000 0.3718 0.3718  plane waves:    1600
 k-point 31 :   0.0000 0.3846 0.3846  plane waves:    1600
 k-point 32 :   0.0000 0.3974 0.3974  plane waves:    1604
 k-point 33 :   0.0000 0.4103 0.4103  plane waves:    1604
 k-point 34 :   0.0000 0.4231 0.4231  plane waves:    1604
 k-point 35 :   0.0000 0.4359 0.4359  plane waves:    1604
 k-point 36 :   0.0000 0.4487 0.4487  plane waves:    1604
 k-point 37 :   0.0000 0.4615 0.4615  plane waves:    1596
 k-point 38 :   0.0000 0.4744 0.4744  plane waves:    1596
 k-point 39 :   0.0000 0.4872 0.4872  plane waves:    1588
 k-point 40 :   0.0000 0.5000 0.5000  plane waves:    1588
 k-point 41 :   0.0000 0.5000 0.5000  plane waves:    1588
 k-point 42 :   0.0064 0.5064 0.5000  plane waves:    1588
 k-point 43 :   0.0128 0.5128 0.5000  plane waves:    1588
 k-point 44 :   0.0192 0.5192 0.5000  plane waves:    1588
 k-point 45 :   0.0256 0.5256 0.5000  plane waves:    1588
 k-point 46 :   0.0321 0.5321 0.5000  plane waves:    1592
 k-point 47 :   0.0385 0.5385 0.5000  plane waves:    1592
 k-point 48 :   0.0449 0.5449 0.5000  plane waves:    1596
 k-point 49 :   0.0513 0.5513 0.5000  plane waves:    1602
 k-point 50 :   0.0577 0.5577 0.5000  plane waves:    1602
 k-point 51 :   0.0641 0.5641 0.5000  plane waves:    1608
 k-point 52 :   0.0705 0.5705 0.5000  plane waves:    1608
 k-point 53 :   0.0769 0.5769 0.5000  plane waves:    1608
 k-point 54 :   0.0833 0.5833 0.5000  plane waves:    1602
 k-point 55 :   0.0897 0.5897 0.5000  plane waves:    1606
 k-point 56 :   0.0962 0.5962 0.5000  plane waves:    1606
 k-point 57 :   0.1026 0.6026 0.5000  plane waves:    1598
 k-point 58 :   0.1090 0.6090 0.5000  plane waves:    1598
 k-point 59 :   0.1154 0.6154 0.5000  plane waves:    1598
 k-point 60 :   0.1218 0.6218 0.5000  plane waves:    1602
 k-point 61 :   0.1282 0.6282 0.5000  plane waves:    1602
 k-point 62 :   0.1346 0.6346 0.5000  plane waves:    1606
 k-point 63 :   0.1410 0.6410 0.5000  plane waves:    1602
 k-point 64 :   0.1474 0.6474 0.5000  plane waves:    1602
 k-point 65 :   0.1538 0.6538 0.5000  plane waves:    1606
 k-point 66 :   0.1603 0.6603 0.5000  plane waves:    1614
 k-point 67 :   0.1667 0.6667 0.5000  plane waves:    1614
 k-point 68 :   0.1731 0.6731 0.5000  plane waves:    1610
 k-point 69 :   0.1795 0.6795 0.5000  plane waves:    1602
 k-point 70 :   0.1859 0.6859 0.5000  plane waves:    1602
 k-point 71 :   0.1923 0.6923 0.5000  plane waves:    1602
 k-point 72 :   0.1987 0.6987 0.5000  plane waves:    1598
 k-point 73 :   0.2051 0.7051 0.5000  plane waves:    1598
 k-point 74 :   0.2115 0.7115 0.5000  plane waves:    1602
 k-point 75 :   0.2179 0.7179 0.5000  plane waves:    1606
 k-point 76 :   0.2244 0.7244 0.5000  plane waves:    1606
 k-point 77 :   0.2308 0.7308 0.5000  plane waves:    1604
 k-point 78 :   0.2372 0.7372 0.5000  plane waves:    1604
 k-point 79 :   0.2436 0.7436 0.5000  plane waves:    1604
 k-point 80 :   0.2500 0.7500 0.5000  plane waves:    1604
 k-point 81 :   0.2500 0.7500 0.5000  plane waves:    1604
 k-point 82 :   0.2532 0.7500 0.4968  plane waves:    1604
 k-point 83 :   0.2564 0.7500 0.4936  plane waves:    1604
 k-point 84 :   0.2596 0.7500 0.4904  plane waves:    1604
 k-point 85 :   0.2628 0.7500 0.4872  plane waves:    1604
 k-point 86 :   0.2660 0.7500 0.4840  plane waves:    1602
 k-point 87 :   0.2692 0.7500 0.4808  plane waves:    1601
 k-point 88 :   0.2724 0.7500 0.4776  plane waves:    1602
 k-point 89 :   0.2756 0.7500 0.4744  plane waves:    1603
 k-point 90 :   0.2788 0.7500 0.4712  plane waves:    1603
 k-point 91 :   0.2821 0.7500 0.4679  plane waves:    1603
 k-point 92 :   0.2853 0.7500 0.4647  plane waves:    1599
 k-point 93 :   0.2885 0.7500 0.4615  plane waves:    1599
 k-point 94 :   0.2917 0.7500 0.4583  plane waves:    1599
 k-point 95 :   0.2949 0.7500 0.4551  plane waves:    1597
 k-point 96 :   0.2981 0.7500 0.4519  plane waves:    1595
 k-point 97 :   0.3013 0.7500 0.4487  plane waves:    1595
 k-point 98 :   0.3045 0.7500 0.4455  plane waves:    1597
 k-point 99 :   0.3077 0.7500 0.4423  plane waves:    1597
 k-point ** :   0.3109 0.7500 0.4391  plane waves:    1599
 k-point ** :   0.3141 0.7500 0.4359  plane waves:    1599
 k-point ** :   0.3173 0.7500 0.4327  plane waves:    1599
 k-point ** :   0.3205 0.7500 0.4295  plane waves:    1599
 k-point ** :   0.3237 0.7500 0.4263  plane waves:    1601
 k-point ** :   0.3269 0.7500 0.4231  plane waves:    1604
 k-point ** :   0.3301 0.7500 0.4199  plane waves:    1598
 k-point ** :   0.3333 0.7500 0.4167  plane waves:    1598
 k-point ** :   0.3365 0.7500 0.4135  plane waves:    1598
 k-point ** :   0.3397 0.7500 0.4103  plane waves:    1600
 k-point ** :   0.3429 0.7500 0.4071  plane waves:    1597
 k-point ** :   0.3462 0.7500 0.4038  plane waves:    1597
 k-point ** :   0.3494 0.7500 0.4006  plane waves:    1595
 k-point ** :   0.3526 0.7500 0.3974  plane waves:    1599
 k-point ** :   0.3558 0.7500 0.3942  plane waves:    1599
 k-point ** :   0.3590 0.7500 0.3910  plane waves:    1596
 k-point ** :   0.3622 0.7500 0.3878  plane waves:    1598
 k-point ** :   0.3654 0.7500 0.3846  plane waves:    1598
 k-point ** :   0.3686 0.7500 0.3814  plane waves:    1598
 k-point ** :   0.3718 0.7500 0.3782  plane waves:    1602
 k-point ** :   0.3750 0.7500 0.3750  plane waves:    1608
 k-point ** :   0.3750 0.7500 0.3750  plane waves:    1608
 k-point ** :   0.3654 0.7308 0.3654  plane waves:    1592
 k-point ** :   0.3558 0.7115 0.3558  plane waves:    1592
 k-point ** :   0.3462 0.6923 0.3462  plane waves:    1592
 k-point ** :   0.3365 0.6731 0.3365  plane waves:    1596
 k-point ** :   0.3269 0.6538 0.3269  plane waves:    1596
 k-point ** :   0.3173 0.6346 0.3173  plane waves:    1592
 k-point ** :   0.3077 0.6154 0.3077  plane waves:    1586
 k-point ** :   0.2981 0.5962 0.2981  plane waves:    1586
 k-point ** :   0.2885 0.5769 0.2885  plane waves:    1588
 k-point ** :   0.2788 0.5577 0.2788  plane waves:    1594
 k-point ** :   0.2692 0.5385 0.2692  plane waves:    1590
 k-point ** :   0.2596 0.5192 0.2596  plane waves:    1590
 k-point ** :   0.2500 0.5000 0.2500  plane waves:    1576
 k-point ** :   0.2404 0.4808 0.2404  plane waves:    1580
 k-point ** :   0.2308 0.4615 0.2308  plane waves:    1576
 k-point ** :   0.2212 0.4423 0.2212  plane waves:    1576
 k-point ** :   0.2115 0.4231 0.2115  plane waves:    1580
 k-point ** :   0.2019 0.4038 0.2019  plane waves:    1580
 k-point ** :   0.1923 0.3846 0.1923  plane waves:    1580
 k-point ** :   0.1827 0.3654 0.1827  plane waves:    1586
 k-point ** :   0.1731 0.3462 0.1731  plane waves:    1590
 k-point ** :   0.1635 0.3269 0.1635  plane waves:    1582
 k-point ** :   0.1538 0.3077 0.1538  plane waves:    1584
 k-point ** :   0.1442 0.2885 0.1442  plane waves:    1580
 k-point ** :   0.1346 0.2692 0.1346  plane waves:    1588
 k-point ** :   0.1250 0.2500 0.1250  plane waves:    1592
 k-point ** :   0.1154 0.2308 0.1154  plane waves:    1584
 k-point ** :   0.1058 0.2115 0.1058  plane waves:    1580
 k-point ** :   0.0962 0.1923 0.0962  plane waves:    1580
 k-point ** :   0.0865 0.1731 0.0865  plane waves:    1576
 k-point ** :   0.0769 0.1538 0.0769  plane waves:    1574
 k-point ** :   0.0673 0.1346 0.0673  plane waves:    1578
 k-point ** :   0.0577 0.1154 0.0577  plane waves:    1577
 k-point ** :   0.0481 0.0962 0.0481  plane waves:    1581
 k-point ** :   0.0385 0.0769 0.0385  plane waves:    1587
 k-point ** :   0.0288 0.0577 0.0288  plane waves:    1603
 k-point ** :   0.0192 0.0385 0.0192  plane waves:    1619
 k-point ** :   0.0096 0.0192 0.0096  plane waves:    1627
 k-point ** :   0.0000 0.0000 0.0000  plane waves:    1639
 k-point ** :   0.0000 0.0000 0.0000  plane waves:    1639
 k-point ** :   0.0128 0.0128 0.0128  plane waves:    1624
 k-point ** :   0.0256 0.0256 0.0256  plane waves:    1624
 k-point ** :   0.0385 0.0385 0.0385  plane waves:    1615
 k-point ** :   0.0513 0.0513 0.0513  plane waves:    1597
 k-point ** :   0.0641 0.0641 0.0641  plane waves:    1588
 k-point ** :   0.0769 0.0769 0.0769  plane waves:    1576
 k-point ** :   0.0897 0.0897 0.0897  plane waves:    1570
 k-point ** :   0.1026 0.1026 0.1026  plane waves:    1573
 k-point ** :   0.1154 0.1154 0.1154  plane waves:    1573
 k-point ** :   0.1282 0.1282 0.1282  plane waves:    1579
 k-point ** :   0.1410 0.1410 0.1410  plane waves:    1576
 k-point ** :   0.1538 0.1538 0.1538  plane waves:    1576
 k-point ** :   0.1667 0.1667 0.1667  plane waves:    1576
 k-point ** :   0.1795 0.1795 0.1795  plane waves:    1576
 k-point ** :   0.1923 0.1923 0.1923  plane waves:    1576
 k-point ** :   0.2051 0.2051 0.2051  plane waves:    1579
 k-point ** :   0.2179 0.2179 0.2179  plane waves:    1579
 k-point ** :   0.2308 0.2308 0.2308  plane waves:    1585
 k-point ** :   0.2436 0.2436 0.2436  plane waves:    1582
 k-point ** :   0.2564 0.2564 0.2564  plane waves:    1588
 k-point ** :   0.2692 0.2692 0.2692  plane waves:    1594
 k-point ** :   0.2821 0.2821 0.2821  plane waves:    1594
 k-point ** :   0.2949 0.2949 0.2949  plane waves:    1600
 k-point ** :   0.3077 0.3077 0.3077  plane waves:    1603
 k-point ** :   0.3205 0.3205 0.3205  plane waves:    1603
 k-point ** :   0.3333 0.3333 0.3333  plane waves:    1609
 k-point ** :   0.3462 0.3462 0.3462  plane waves:    1606
 k-point ** :   0.3590 0.3590 0.3590  plane waves:    1606
 k-point ** :   0.3718 0.3718 0.3718  plane waves:    1601
 k-point ** :   0.3846 0.3846 0.3846  plane waves:    1601
 k-point ** :   0.3974 0.3974 0.3974  plane waves:    1592
 k-point ** :   0.4103 0.4103 0.4103  plane waves:    1586
 k-point ** :   0.4231 0.4231 0.4231  plane waves:    1586
 k-point ** :   0.4359 0.4359 0.4359  plane waves:    1580
 k-point ** :   0.4487 0.4487 0.4487  plane waves:    1580
 k-point ** :   0.4615 0.4615 0.4615  plane waves:    1586
 k-point ** :   0.4744 0.4744 0.4744  plane waves:    1586
 k-point ** :   0.4872 0.4872 0.4872  plane waves:    1568
 k-point ** :   0.5000 0.5000 0.5000  plane waves:    1568
 k-point ** :   0.5000 0.5000 0.5000  plane waves:    1568
 k-point ** :   0.4936 0.5032 0.5032  plane waves:    1568
 k-point ** :   0.4872 0.5064 0.5064  plane waves:    1575
 k-point ** :   0.4808 0.5096 0.5096  plane waves:    1581
 k-point ** :   0.4744 0.5128 0.5128  plane waves:    1587
 k-point ** :   0.4679 0.5160 0.5160  plane waves:    1584
 k-point ** :   0.4615 0.5192 0.5192  plane waves:    1584
 k-point ** :   0.4551 0.5224 0.5224  plane waves:    1584
 k-point ** :   0.4487 0.5256 0.5256  plane waves:    1585
 k-point ** :   0.4423 0.5288 0.5288  plane waves:    1589
 k-point ** :   0.4359 0.5321 0.5321  plane waves:    1589
 k-point ** :   0.4295 0.5353 0.5353  plane waves:    1589
 k-point ** :   0.4231 0.5385 0.5385  plane waves:    1585
 k-point ** :   0.4167 0.5417 0.5417  plane waves:    1583
 k-point ** :   0.4103 0.5449 0.5449  plane waves:    1581
 k-point ** :   0.4038 0.5481 0.5481  plane waves:    1585
 k-point ** :   0.3974 0.5513 0.5513  plane waves:    1585
 k-point ** :   0.3910 0.5545 0.5545  plane waves:    1583
 k-point ** :   0.3846 0.5577 0.5577  plane waves:    1584
 k-point ** :   0.3782 0.5609 0.5609  plane waves:    1586
 k-point ** :   0.3718 0.5641 0.5641  plane waves:    1586
 k-point ** :   0.3654 0.5673 0.5673  plane waves:    1584
 k-point ** :   0.3590 0.5705 0.5705  plane waves:    1584
 k-point ** :   0.3526 0.5737 0.5737  plane waves:    1582
 k-point ** :   0.3462 0.5769 0.5769  plane waves:    1582
 k-point ** :   0.3397 0.5801 0.5801  plane waves:    1585
 k-point ** :   0.3333 0.5833 0.5833  plane waves:    1579
 k-point ** :   0.3269 0.5865 0.5865  plane waves:    1589
 k-point ** :   0.3205 0.5897 0.5897  plane waves:    1589
 k-point ** :   0.3141 0.5929 0.5929  plane waves:    1593
 k-point ** :   0.3077 0.5962 0.5962  plane waves:    1593
 k-point ** :   0.3013 0.5994 0.5994  plane waves:    1589
 k-point ** :   0.2949 0.6026 0.6026  plane waves:    1591
 k-point ** :   0.2885 0.6058 0.6058  plane waves:    1589
 k-point ** :   0.2821 0.6090 0.6090  plane waves:    1591
 k-point ** :   0.2756 0.6122 0.6122  plane waves:    1593
 k-point ** :   0.2692 0.6154 0.6154  plane waves:    1590
 k-point ** :   0.2628 0.6186 0.6186  plane waves:    1594
 k-point ** :   0.2564 0.6218 0.6218  plane waves:    1598
 k-point ** :   0.2500 0.6250 0.6250  plane waves:    1608
 k-point ** :   0.2500 0.6250 0.6250  plane waves:    1608
 k-point ** :   0.2500 0.6282 0.6218  plane waves:    1602
 k-point ** :   0.2500 0.6314 0.6186  plane waves:    1598
 k-point ** :   0.2500 0.6346 0.6154  plane waves:    1598
 k-point ** :   0.2500 0.6378 0.6122  plane waves:    1598
 k-point ** :   0.2500 0.6410 0.6090  plane waves:    1596
 k-point ** :   0.2500 0.6442 0.6058  plane waves:    1599
 k-point ** :   0.2500 0.6474 0.6026  plane waves:    1599
 k-point ** :   0.2500 0.6506 0.5994  plane waves:    1595
 k-point ** :   0.2500 0.6538 0.5962  plane waves:    1597
 k-point ** :   0.2500 0.6571 0.5929  plane waves:    1597
 k-point ** :   0.2500 0.6603 0.5897  plane waves:    1600
 k-point ** :   0.2500 0.6635 0.5865  plane waves:    1598
 k-point ** :   0.2500 0.6667 0.5833  plane waves:    1598
 k-point ** :   0.2500 0.6699 0.5801  plane waves:    1598
 k-point ** :   0.2500 0.6731 0.5769  plane waves:    1604
 k-point ** :   0.2500 0.6763 0.5737  plane waves:    1601
 k-point ** :   0.2500 0.6795 0.5705  plane waves:    1599
 k-point ** :   0.2500 0.6827 0.5673  plane waves:    1599
 k-point ** :   0.2500 0.6859 0.5641  plane waves:    1599
 k-point ** :   0.2500 0.6891 0.5609  plane waves:    1599
 k-point ** :   0.2500 0.6923 0.5577  plane waves:    1597
 k-point ** :   0.2500 0.6955 0.5545  plane waves:    1597
 k-point ** :   0.2500 0.6987 0.5513  plane waves:    1595
 k-point ** :   0.2500 0.7019 0.5481  plane waves:    1595
 k-point ** :   0.2500 0.7051 0.5449  plane waves:    1597
 k-point ** :   0.2500 0.7083 0.5417  plane waves:    1599
 k-point ** :   0.2500 0.7115 0.5385  plane waves:    1599
 k-point ** :   0.2500 0.7147 0.5353  plane waves:    1599
 k-point ** :   0.2500 0.7179 0.5321  plane waves:    1603
 k-point ** :   0.2500 0.7212 0.5288  plane waves:    1603
 k-point ** :   0.2500 0.7244 0.5256  plane waves:    1603
[...]
     26      24.8604      0.00000
     27      25.3897      0.00000
     28      26.1444      0.00000
     29      26.2831      0.00000
     30      26.3771      0.00000
     31      27.3674      0.00000
     32      27.4598      0.00000
     33      29.9872      0.00000
     34      30.2813      0.00000
     35      30.7157      0.00000
     36      31.1729      0.00000
     37      31.3953      0.00000
     38      32.1127      0.00000
     39      32.4115      0.00000
     40      33.0237      0.00000
     41      36.3060      0.00000
     42      36.4601      0.00000
     43      37.4928      0.00000
     44      37.7317      0.00000
     45      38.9409      0.00000
     46      39.0226      0.00000
     47      39.5407      0.00000
     48      40.7881      0.00000
     49      40.8710      0.00000
     50      42.1703      0.00000
     51      43.6828      0.00000
     52      43.9721      0.00000
     53      44.1912      0.00000
     54      44.6652      0.00000
     55      44.7780      0.00000
     56      46.8924      0.00000
     57      48.0743      0.00000
     58      48.2144      0.00000
     59      48.7816      0.00000
     60      49.0947      0.00000
     61      49.1782      0.00000
     62      49.5173      0.00000
     63      50.1048      0.00000
     64      50.9376      0.00000
     65      51.0324      0.00000
     66      51.7377      0.00000
     67      51.8360      0.00000
     68      52.9388      0.00000
     69      53.0792      0.00000
     70      54.5791      0.00000
     71      55.9015      0.00000
     72      55.9666      0.00000
     73      56.5238      0.00000
     74      56.7119      0.00000
     75      57.1387      0.00000
     76      57.4698      0.00000
     77      57.7908      0.00000
     78      58.6007      0.00000
     79      58.6197      0.00000
     80      59.5283      0.00000

 k-point 318 :       0.4872    0.5128    0.5000
  band No.  band energies     occupation 
      1      -7.9210      2.00000
      2      -3.9336      2.00000
      3      -3.9334      2.00000
      4      -3.7691      2.00000
      5      -3.7687      2.00000
      6      -3.6390      2.00000
      7      -2.0920      2.00000
      8       1.9453      2.00000
      9       1.9727      2.00000
     10       4.5888      0.00000
     11       7.8753      0.00000
     12       7.9062      0.00000
     13      10.3852      0.00000
     14      12.1414      0.00000
     15      13.5971      0.00000
     16      13.6176      0.00000
     17      14.4156      0.00000
     18      14.7944      0.00000
     19      14.9402      0.00000
     20      19.6489      0.00000
     21      21.4420      0.00000
     22      21.5350      0.00000
     23      21.6661      0.00000
     24      22.5432      0.00000
     25      22.5443      0.00000
     26      24.9708      0.00000
     27      25.3824      0.00000
     28      26.2379      0.00000
     29      26.3405      0.00000
     30      26.3639      0.00000
     31      27.2664      0.00000
     32      27.3166      0.00000
     33      30.2783      0.00000
     34      30.4399      0.00000
     35      30.7681      0.00000
     36      31.1269      0.00000
     37      31.2309      0.00000
     38      31.9906      0.00000
     39      32.1702      0.00000
     40      33.0860      0.00000
     41      36.4472      0.00000
     42      36.5107      0.00000
     43      37.5008      0.00000
     44      37.6176      0.00000
     45      38.9890      0.00000
     46      39.0401      0.00000
     47      39.3786      0.00000
     48      40.8014      0.00000
     49      40.8395      0.00000
     50      42.2259      0.00000
     51      43.7485      0.00000
     52      44.0963      0.00000
     53      44.1997      0.00000
     54      44.6035      0.00000
     55      44.6582      0.00000
     56      46.9008      0.00000
     57      48.1623      0.00000
     58      48.2455      0.00000
     59      48.7654      0.00000
     60      48.9995      0.00000
     61      49.3218      0.00000
     62      49.4947      0.00000
     63      50.0545      0.00000
     64      50.9425      0.00000
     65      50.9905      0.00000
     66      51.7277      0.00000
     67      51.7823      0.00000
     68      52.9375      0.00000
     69      53.0516      0.00000
     70      54.5281      0.00000
     71      56.0950      0.00000
     72      56.1200      0.00000
     73      56.6077      0.00000
     74      56.6715      0.00000
     75      57.0909      0.00000
     76      57.4825      0.00000
     77      57.7156      0.00000
     78      58.3915      0.00000
     79      58.5545      0.00000
     80      59.4552      0.00000

 k-point 319 :       0.4936    0.5064    0.5000
  band No.  band energies     occupation 
      1      -7.9223      2.00000
      2      -3.9337      2.00000
      3      -3.9337      2.00000
      4      -3.7688      2.00000
      5      -3.7687      2.00000
      6      -3.6394      2.00000
      7      -2.0942      2.00000
      8       1.9704      2.00000
      9       1.9773      2.00000
     10       4.5626      0.00000
     11       7.8875      0.00000
     12       7.8953      0.00000
     13      10.3682      0.00000
     14      12.1601      0.00000
     15      13.6279      0.00000
     16      13.6306      0.00000
     17      14.4785      0.00000
     18      14.7674      0.00000
     19      14.8175      0.00000
     20      19.6531      0.00000
     21      21.5126      0.00000
     22      21.5554      0.00000
     23      21.6261      0.00000
     24      22.5199      0.00000
     25      22.5201      0.00000
     26      25.0410      0.00000
     27      25.3761      0.00000
     28      26.2829      0.00000
     29      26.3817      0.00000
     30      26.3887      0.00000
     31      27.1958      0.00000
     32      27.2108      0.00000
     33      30.5327      0.00000
     34      30.5879      0.00000
     35      30.7775      0.00000
     36      31.0695      0.00000
     37      31.0918      0.00000
     38      31.8942      0.00000
     39      32.0062      0.00000
     40      33.1265      0.00000
     41      36.5358      0.00000
     42      36.5502      0.00000
     43      37.5091      0.00000
     44      37.5404      0.00000
     45      39.0310      0.00000
     46      39.0500      0.00000
     47      39.2599      0.00000
     48      40.8105      0.00000
     49      40.8202      0.00000
     50      42.2564      0.00000
     51      43.8084      0.00000
     52      44.1938      0.00000
     53      44.2193      0.00000
     54      44.5419      0.00000
     55      44.5535      0.00000
     56      46.9096      0.00000
     57      48.2377      0.00000
     58      48.2645      0.00000
     59      48.7243      0.00000
     60      48.9481      0.00000
     61      49.4283      0.00000
     62      49.4763      0.00000
     63      50.0186      0.00000
     64      50.9399      0.00000
     65      50.9535      0.00000
     66      51.7333      0.00000
     67      51.7489      0.00000
     68      52.9370      0.00000
     69      53.0356      0.00000
     70      54.4903      0.00000
     71      56.2659      0.00000
     72      56.2719      0.00000
     73      56.5932      0.00000
     74      56.6052      0.00000
     75      57.0475      0.00000
     76      57.5760      0.00000
     77      57.6683      0.00000
     78      58.1760      0.00000
     79      58.5229      0.00000
     80      59.4371      0.00000

 k-point 320 :       0.5000    0.5000    0.5000
  band No.  band energies     occupation 
      1      -7.9227      2.00000
      2      -3.9338      2.00000
      3      -3.9338      2.00000
      4      -3.7687      2.00000
      5      -3.7687      2.00000
      6      -3.6395      2.00000
      7      -2.0949      2.00000
      8       1.9789      2.00000
      9       1.9789      2.00000
     10       4.5538      0.00000
     11       7.8917      0.00000
     12       7.8917      0.00000
     13      10.3624      0.00000
     14      12.1665      0.00000
     15      13.6364      0.00000
     16      13.6364      0.00000
     17      14.5175      0.00000
     18      14.7585      0.00000
     19      14.7585      0.00000
     20      19.6545      0.00000
     21      21.5625      0.00000
     22      21.5625      0.00000
     23      21.5867      0.00000
     24      22.5117      0.00000
     25      22.5117      0.00000
     26      25.0652      0.00000
     27      25.3737      0.00000
     28      26.2887      0.00000
     29      26.4046      0.00000
     30      26.4046      0.00000
     31      27.1699      0.00000
     32      27.1699      0.00000
     33      30.6730      0.00000
     34      30.6730      0.00000
     35      30.7452      0.00000
     36      31.0240      0.00000
     37      31.0240      0.00000
     38      31.8568      0.00000
     39      31.9485      0.00000
     40      33.1404      0.00000
     41      36.5656      0.00000
     42      36.5656      0.00000
     43      37.5128      0.00000
     44      37.5128      0.00000
     45      39.0532      0.00000
     46      39.0532      0.00000
     47      39.2105      0.00000
     48      40.8137      0.00000
     49      40.8137      0.00000
     50      42.2660      0.00000
     51      43.8333      0.00000
     52      44.2346      0.00000
     53      44.2346      0.00000
     54      44.5090      0.00000
     55      44.5090      0.00000
     56      46.9132      0.00000
     57      48.2708      0.00000
     58      48.2708      0.00000
     59      48.6980      0.00000
     60      48.9357      0.00000
     61      49.4689      0.00000
     62      49.4689      0.00000
     63      50.0041      0.00000
     64      50.9384      0.00000
     65      50.9384      0.00000
     66      51.7374      0.00000
     67      51.7374      0.00000
     68      52.9368      0.00000
     69      53.0304      0.00000
     70      54.4765      0.00000
     71      56.3586      0.00000
     72      56.3586      0.00000
     73      56.5489      0.00000
     74      56.5489      0.00000
     75      57.0302      0.00000
     76      57.6525      0.00000
     77      57.6526      0.00000
     78      58.0636      0.00000
     79      58.5121      0.00000
     80      59.4319      0.00000


--------------------------------------------------------------------------------------------------------


 soft charge-density along one line, spin component           1
         0         1         2         3         4         5         6         7         8         9
 total charge-density along one line
 
 pseudopotential strength for first ion, spin component:           1
 -9.836  -0.000  -0.001  -0.000   0.001   1.828   0.000   0.000
 -0.000  -9.836  -0.000  -0.001  -0.000   0.000   1.828   0.000
 -0.001  -0.000  -9.837  -0.000  -0.000   0.000   0.000   1.828
 -0.000  -0.001  -0.000  -9.836   0.000   0.000   0.000   0.000
  0.001  -0.000  -0.000   0.000  -9.837  -0.000   0.000   0.000
  1.828   0.000   0.000   0.000  -0.000   1.315  -0.000  -0.000
  0.000   1.828   0.000   0.000   0.000  -0.000   1.315  -0.000
  0.000   0.000   1.828   0.000   0.000  -0.000  -0.000   1.315
  0.000   0.000   0.000   1.828   0.000  -0.000  -0.000  -0.000
 -0.000   0.000   0.000   0.000   1.828   0.000  -0.000  -0.000
  0.000   0.000  -0.000   0.000   0.000  -0.000  -0.000   0.000
 -0.000  -0.000   0.000  -0.000   0.000   0.000   0.000  -0.000
 -0.000  -0.000  -0.000   0.000  -0.000   0.000   0.000   0.000
  0.000  -0.000   0.000  -0.000   0.000  -0.000   0.000  -0.000
 -0.000   0.000  -0.000   0.000   0.000   0.000  -0.000   0.000
 -0.000  -0.000  -0.000   0.000  -0.000   0.000   0.000   0.000
  0.000  -0.000   0.000  -0.000   0.000  -0.000   0.000  -0.000
 -0.000   0.000  -0.000   0.000   0.000   0.000  -0.000   0.000
 total augmentation occupancy for first ion, spin component:           1
  2.000   0.000   0.000   0.000   0.000   0.000   0.000   0.000   0.000   0.000   0.000   0.000   0.000   0.000   0.000   0.000
  0.000   2.000   0.000   0.000   0.000   0.000   0.000   0.000   0.000   0.000   0.000   0.000   0.000   0.000   0.000   0.000
  0.000   0.000   2.000   0.000   0.000   0.000   0.000   0.000   0.000   0.000   0.000   0.000   0.000   0.000   0.000   0.000
  0.000   0.000   0.000   2.000   0.000   0.000   0.000   0.000   0.000   0.000   0.000   0.000   0.000   0.000   0.000   0.000
  0.000   0.000   0.000   0.000   2.000   0.000   0.000   0.000   0.000   0.000   0.000   0.000   0.000   0.000   0.000   0.000
  0.000   0.000   0.000   0.000   0.000   0.000   0.000   0.000   0.000   0.000   0.000   0.000   0.000   0.000   0.000   0.000
  0.000   0.000   0.000   0.000   0.000   0.000   0.000   0.000   0.000   0.000   0.000   0.000   0.000   0.000   0.000   0.000
  0.000   0.000   0.000   0.000   0.000   0.000   0.000   0.000   0.000   0.000   0.000   0.000   0.000   0.000   0.000   0.000
  0.000   0.000   0.000   0.000   0.000   0.000   0.000   0.000   0.000   0.000   0.000   0.000   0.000   0.000   0.000   0.000
  0.000   0.000   0.000   0.000   0.000   0.000   0.000   0.000   0.000   0.000   0.000   0.000   0.000   0.000   0.000   0.000
  0.000   0.000   0.000   0.000   0.000   0.000   0.000   0.000   0.000   0.000   2.000   0.000   0.000   0.000   0.000   0.000
  0.000   0.000   0.000   0.000   0.000   0.000   0.000   0.000   0.000   0.000   0.000   0.000   0.000   0.000   0.000   0.000
  0.000   0.000   0.000   0.000   0.000   0.000   0.000   0.000   0.000   0.000   0.000   0.000   0.000   0.000   0.000   0.000
  0.000   0.000   0.000   0.000   0.000   0.000   0.000   0.000   0.000   0.000   0.000   0.000   0.000   0.000   0.000   0.000
  0.000   0.000   0.000   0.000   0.000   0.000   0.000   0.000   0.000   0.000   0.000   0.000   0.000   0.000   0.000   0.000
  0.000   0.000   0.000   0.000   0.000   0.000   0.000   0.000   0.000   0.000   0.000   0.000   0.000   0.000   0.000   0.000
  0.000   0.000   0.000   0.000   0.000   0.000   0.000   0.000   0.000   0.000   0.000   0.000   0.000   0.000   0.000   0.000
  0.000   0.000   0.000   0.000   0.000   0.000   0.000   0.000   0.000   0.000   0.000   0.000   0.000   0.000   0.000   0.000


------------------------ aborting loop because EDIFF is reached ----------------------------------------


 


 total charge     
 
# of ion     s       p       d       tot
----------------------------------------
  1        0.529   0.393   9.764  10.686
  2        1.336   2.099   0.023   3.458
------------------------------------------------
tot        1.865   2.493   9.787  14.144
 
    CHARGE:  cpu time    0.47: real time    0.47
    FORLOC:  cpu time    0.00: real time    0.00
    FORNL :  cpu time    7.99: real time    8.02
    STRESS:  cpu time   23.94: real time   24.12
    FORCOR:  cpu time    0.02: real time    0.02
    FORHAR:  cpu time    0.01: real time    0.01

  FORCE on cell =-STRESS in cart. coord.  units (eV):
  Direction    XX          YY          ZZ          XY          YZ          ZX
  --------------------------------------------------------------------------------------
  Alpha Z    41.44870    41.44870    41.44870
  Ewald    -365.05101  -365.05096  -365.05101    -0.00004     0.00004     0.00005
  Hartree   253.71649   253.71650   253.71652    -0.00003    -0.00000    -0.00000
  E(xc)     -95.99280   -95.99280   -95.99280     0.00000     0.00000     0.00000
  Local     -48.89493   -48.89501   -48.89494     0.00010     0.00003     0.00004
  n-local    79.95170    78.70953    76.36288     0.89715    -2.57522    -1.60028
  augment    14.50450    14.50451    14.50448    -0.00002    -0.00003    -0.00005
  Kinetic   123.04169   122.86246   120.40305     0.09643    -2.84297    -1.71262
  Fock        0.00000     0.00000     0.00000     0.00000     0.00000     0.00000
  -------------------------------------------------------------------------------------
  Total       0.17472     0.17472     0.17472    -0.00000    -0.00000    -0.00000
  in kB       4.73290     4.73290     4.73291    -0.00000    -0.00000    -0.00000
  external pressure =        4.73 kB  Pullay stress =        0.00 kB


 VOLUME and BASIS-vectors are now :
 -----------------------------------------------------------------------------
  energy-cutoff  :      520.00
  volume of cell :       59.15
      direct lattice vectors                 reciprocal lattice vectors
     3.787417000  0.000000000  2.186666000     0.264032189 -0.093349451  0.000000000
     1.262472000  3.570811000  2.186666000     0.000000000  0.280048426  0.000000000
     0.000000000  0.000000000  4.373333000    -0.132016064 -0.093349466  0.228658554

  length of vectors
     4.373332337  4.373332247  4.373333000     0.280048418  0.280048426  0.280048386


 FORCES acting on ions
    electron-ion (+dipol)            ewald-force                    non-local-force                 convergence-correction
 -----------------------------------------------------------------------------------------------
   -.753E-05 -.106E-04 0.237E-04   0.134E-04 0.191E-04 -.441E-04   -.239E-16 -.321E-16 -.156E-16   0.680E-07 0.947E-07 -.207E-06
   0.117E-04 0.165E-04 -.371E-04   -.134E-04 -.191E-04 0.441E-04   -.486E-16 -.520E-16 0.118E-15   0.119E-07 0.172E-07 -.404E-07
 -----------------------------------------------------------------------------------------------
   0.413E-05 0.589E-05 -.134E-04   0.753E-15 -.543E-15 -.701E-15   -.724E-16 -.841E-16 0.102E-15   0.798E-07 0.112E-06 -.247E-06
 
 
 POSITION                                       TOTAL-FORCE (eV/Angst)
 -----------------------------------------------------------------------------------
      0.00000      0.00000      0.00000        -0.000000     -0.000000     -0.000000
      1.26247      0.89270      2.18667         0.000000      0.000000      0.000000
 -----------------------------------------------------------------------------------
    total drift:                                0.000004      0.000006     -0.000014


--------------------------------------------------------------------------------------------------------



  FREE ENERGIE OF THE ION-ELECTRON SYSTEM (eV)
  ---------------------------------------------------
  free  energy   TOTEN  =        -5.19570687 eV

  energy  without entropy=       -5.19570687  energy(sigma->0) =       -5.19570687
 


--------------------------------------------------------------------------------------------------------


    POTLOK:  cpu time    0.08: real time    0.08


--------------------------------------------------------------------------------------------------------


     LOOP+:  cpu time  239.90: real time  241.50
    4ORBIT:  cpu time    0.00: real time    0.00
 


 total charge     
 
# of ion     s       p       d       tot
----------------------------------------
  1        0.529   0.393   9.764  10.686
  2        1.336   2.099   0.023   3.458
------------------------------------------------
tot        1.865   2.493   9.787  14.144
 

 total amount of memory used by VASP on root node    71393. kBytes
========================================================================

   base      :      30000. kBytes
   nonlr-proj:       2992. kBytes
   fftplans  :        893. kBytes
   grid      :       3071. kBytes
   one-center:         31. kBytes
   wavefun   :      34406. kBytes
 
  
  
 General timing and accounting informations for this job:
 ========================================================
  
                  Total CPU time used (sec):      261.969
                            User time (sec):      257.106
                          System time (sec):        4.863
                         Elapsed time (sec):      264.138
  
                   Maximum memory used (kb):      139528.
                   Average memory used (kb):           0.
  
                          Minor page faults:        17019
                          Major page faults:            0
                 Voluntary context switches:         2167
