unknown system                          
           1
     3.787417    0.000000    2.186666
     1.262472    3.570811    2.186666
     0.000000    0.000000    4.373333
   Zn   Te
   1   1
unknown system                          
           1
     3.787417    0.000000    2.186666
     1.262472    3.570811    2.186666
     0.000000    0.000000    4.373333
   Zn   Te
   1   1
Direct configuration=     1
   0.00000000  0.00000000  0.00000000
   0.25000000  0.25000000  0.25000000
