    8    8    1    1
  0.2392351E+02  0.5762863E-09  0.5762863E-09  0.5762863E-09  0.5000000E-15
  1.000000000000000E-004
  CAR 
 unknown system                          
   24   10   20
 
  0.8333333E-01  0.8333333E-01  0.8333333E-01  0.3703704E-01
   1       -8.769804
   2       -5.429294
   3       -5.429294
   4       -5.429294
   5       -4.183444
   6       -4.183444
   7       -4.183444
   8       -0.116251
   9       -0.116250
  10       -0.116250
  11        0.312238
  12        0.312238
  13        0.312238
  14        2.429717
  15        3.464015
  16        3.464018
  17        3.658601
  18        3.658602
  19        3.658603
  20        4.250725
 
  0.2500000E+00  0.8333333E-01  0.8333333E-01  0.1111111E+00
   1       -8.539583
   2       -6.511008
   3       -5.337388
   4       -5.337388
   5       -4.176176
   6       -4.176176
   7       -2.833716
   8       -0.718535
   9       -0.718535
  10        0.109194
  11        0.109194
  12        0.182632
  13        0.560956
  14        1.196574
  15        2.627243
  16        2.787356
  17        3.771386
  18        4.421167
  19        4.421168
  20        4.726720
 
  0.4166667E+00  0.8333333E-01  0.8333333E-01  0.1111111E+00
   1       -8.081635
   2       -7.401771
   3       -5.230360
   4       -5.230360
   5       -4.184983
   6       -4.184983
   7       -1.447345
   8       -1.060936
   9       -1.060936
  10       -0.235991
  11       -0.235991
  12       -0.097702
  13        0.787238
  14        1.049505
  15        1.689853
  16        1.756045
  17        4.093282
  18        4.631547
  19        5.554601
  20        5.986274
 
  0.2500000E+00  0.2500000E+00  0.8333333E-01  0.1111111E+00
   1       -8.312958
   2       -6.344549
   3       -6.344549
   4       -5.436174
   5       -4.092252
   6       -3.060665
   7       -3.060665
   8       -1.194067
   9       -0.379758
  10       -0.379758
  11        0.116089
  12        0.491052
  13        0.491052
  14        0.737659
  15        1.869277
  16        3.176867
  17        4.097878
  18        4.640405
  19        4.640405
  20        5.280708
 
  0.4166667E+00  0.2500000E+00  0.8333333E-01  0.2222222E+00
   1       -7.863634
   2       -7.201090
   3       -6.045339
   4       -5.697074
   5       -3.845104
   6       -3.452850
   7       -1.995884
   8       -1.224076
   9       -0.960747
  10       -0.894221
  11        0.214223
  12        0.490664
  13        0.716727
  14        0.980074
  15        1.287265
  16        2.364669
  17        5.026022
  18        5.061405
  19        5.565374
  20        6.202063
 
  0.4166667E+00  0.4166667E+00  0.8333333E-01  0.1111111E+00
   1       -7.435239
   2       -6.815438
   3       -6.815438
   4       -6.285089
   5       -3.339274
   6       -2.699301
   7       -2.699301
   8       -1.874888
   9       -0.998847
  10       -0.475088
  11       -0.475088
  12        0.173597
  13        1.514739
  14        1.581340
  15        1.581340
  16        2.448165
  17        4.840285
  18        5.495212
  19        5.827907
  20        5.827920
 
  0.2500000E+00  0.2500000E+00  0.2500000E+00  0.3703704E-01
   1       -8.091619
   2       -6.235238
   3       -6.235238
   4       -6.235238
   5       -3.421417
   6       -3.421417
   7       -3.421417
   8       -0.907938
   9       -0.495294
  10       -0.495294
  11       -0.495294
  12        0.960870
  13        0.960870
  14        0.960870
  15        2.658203
  16        2.658203
  17        4.379494
  18        4.379494
  19        4.379494
  20        4.450515
 
  0.4166667E+00  0.2500000E+00  0.2500000E+00  0.1111111E+00
   1       -7.655644
   2       -7.022601
   3       -6.105231
   4       -6.105231
   5       -3.771559
   6       -3.771559
   7       -2.701642
   8       -1.877457
   9       -0.435844
  10       -0.435844
  11        0.660725
  12        1.028614
  13        1.028614
  14        1.391325
  15        1.943184
  16        1.988392
  17        4.878039
  18        4.977168
  19        5.256096
  20        5.256096
 
  0.4166667E+00  0.4166667E+00  0.2500000E+00  0.1111111E+00
   1       -7.254359
   2       -6.701549
   3       -6.701549
   4       -6.338788
   5       -3.804817
   6       -3.396764
   7       -3.396764
   8       -2.743404
   9        0.064428
  10        0.519714
  11        0.519714
  12        1.316037
  13        1.658004
  14        1.695036
  15        1.695036
  16        2.363282
  17        4.785740
  18        4.984187
  19        5.352835
  20        5.352835
 
  0.4166667E+00  0.4166667E+00  0.4166667E+00  0.3703704E-01
   1       -6.929507
   2       -6.565747
   3       -6.565747
   4       -6.565747
   5       -3.907097
   6       -3.907097
   7       -3.907097
   8       -3.500360
   9        1.376199
  10        1.376199
  11        1.376199
  12        1.904119
  13        1.904119
  14        1.904119
  15        2.170552
  16        2.170552
  17        4.042184
  18        4.669494
  19        4.669494
  20        4.669494
