       N       E                     dE             d eps       ncg     rms          rms(c)
DAV:   1     0.597971531400E+02    0.59797E+02   -0.85374E+03   400   0.904E+02
DAV:   2    -0.195069457279E+02   -0.79304E+02   -0.79016E+02   640   0.968E+01
DAV:   3    -0.210504930143E+02   -0.15435E+01   -0.15420E+01   500   0.195E+01
DAV:   4    -0.210551039721E+02   -0.46110E-02   -0.46107E-02   680   0.109E+00
DAV:   5    -0.210551044985E+02   -0.52637E-06   -0.52626E-06   500   0.105E-02    0.279E+00
RMM:   6    -0.209725035193E+02    0.82601E-01   -0.13501E-02   400   0.104E+00    0.173E+00
RMM:   7    -0.209299710077E+02    0.42533E-01   -0.35908E-02   400   0.166E+00    0.987E-02
RMM:   8    -0.209302344221E+02   -0.26341E-03   -0.52583E-04   366   0.130E-01    0.197E-02
RMM:   9    -0.209302724459E+02   -0.38024E-04   -0.71354E-05   261   0.499E-02
   1 F= -.20930272E+02 E0= -.20880752E+02  d E =-.990401E-01
