    8    8    1    1
  0.2392351E+02  0.5762863E-09  0.5762863E-09  0.5762863E-09  0.5000000E-15
  1.000000000000000E-004
  CAR 
 unknown system                          
   24   10   20
 
  0.8333333E-01  0.8333333E-01  0.8333333E-01  0.3703704E-01
   1       -8.769817
   2       -5.429305
   3       -5.429305
   4       -5.429305
   5       -4.183455
   6       -4.183455
   7       -4.183455
   8       -0.116258
   9       -0.116258
  10       -0.116258
  11        0.312231
  12        0.312231
  13        0.312231
  14        2.429709
  15        3.464006
  16        3.464007
  17        3.658592
  18        3.658593
  19        3.658593
  20        4.250715
 
  0.2500000E+00  0.8333333E-01  0.8333333E-01  0.1111111E+00
   1       -8.539596
   2       -6.511019
   3       -5.337399
   4       -5.337399
   5       -4.176186
   6       -4.176186
   7       -2.833726
   8       -0.718541
   9       -0.718541
  10        0.109186
  11        0.109186
  12        0.182626
  13        0.560949
  14        1.196564
  15        2.627235
  16        2.787347
  17        3.771378
  18        4.421158
  19        4.421158
  20        4.726703
 
  0.4166667E+00  0.8333333E-01  0.8333333E-01  0.1111111E+00
   1       -8.081648
   2       -7.401783
   3       -5.230370
   4       -5.230370
   5       -4.184993
   6       -4.184993
   7       -1.447354
   8       -1.060942
   9       -1.060942
  10       -0.235997
  11       -0.235997
  12       -0.097711
  13        0.787232
  14        1.049497
  15        1.689845
  16        1.756037
  17        4.093273
  18        4.631537
  19        5.554691
  20        5.986245
 
  0.2500000E+00  0.2500000E+00  0.8333333E-01  0.1111111E+00
   1       -8.312971
   2       -6.344560
   3       -6.344560
   4       -5.436185
   5       -4.092262
   6       -3.060675
   7       -3.060675
   8       -1.194073
   9       -0.379765
  10       -0.379765
  11        0.116080
  12        0.491045
  13        0.491045
  14        0.737652
  15        1.869269
  16        3.176858
  17        4.097869
  18        4.640395
  19        4.640397
  20        5.280920
 
  0.4166667E+00  0.2500000E+00  0.8333333E-01  0.2222222E+00
   1       -7.863647
   2       -7.201102
   3       -6.045350
   4       -5.697085
   5       -3.845113
   6       -3.452859
   7       -1.995893
   8       -1.224082
   9       -0.960755
  10       -0.894227
  11        0.214217
  12        0.490658
  13        0.716719
  14        0.980067
  15        1.287258
  16        2.364660
  17        5.026012
  18        5.061394
  19        5.565322
  20        6.202095
 
  0.4166667E+00  0.4166667E+00  0.8333333E-01  0.1111111E+00
   1       -7.435251
   2       -6.815449
   3       -6.815449
   4       -6.285100
   5       -3.339283
   6       -2.699310
   7       -2.699310
   8       -1.874896
   9       -0.998854
  10       -0.475095
  11       -0.475095
  12        0.173591
  13        1.514731
  14        1.581332
  15        1.581332
  16        2.448156
  17        4.840275
  18        5.495198
  19        5.827905
  20        5.827919
 
  0.2500000E+00  0.2500000E+00  0.2500000E+00  0.3703704E-01
   1       -8.091632
   2       -6.235250
   3       -6.235250
   4       -6.235250
   5       -3.421426
   6       -3.421426
   7       -3.421426
   8       -0.907946
   9       -0.495300
  10       -0.495300
  11       -0.495300
  12        0.960862
  13        0.960862
  14        0.960862
  15        2.658195
  16        2.658195
  17        4.379485
  18        4.379485
  19        4.379485
  20        4.450504
 
  0.4166667E+00  0.2500000E+00  0.2500000E+00  0.1111111E+00
   1       -7.655657
   2       -7.022613
   3       -6.105242
   4       -6.105242
   5       -3.771567
   6       -3.771567
   7       -2.701650
   8       -1.877465
   9       -0.435851
  10       -0.435851
  11        0.660718
  12        1.028607
  13        1.028607
  14        1.391317
  15        1.943176
  16        1.988384
  17        4.878029
  18        4.977157
  19        5.256085
  20        5.256085
 
  0.4166667E+00  0.4166667E+00  0.2500000E+00  0.1111111E+00
   1       -7.254372
   2       -6.701560
   3       -6.701560
   4       -6.338799
   5       -3.804825
   6       -3.396772
   7       -3.396772
   8       -2.743412
   9        0.064421
  10        0.519707
  11        0.519707
  12        1.316029
  13        1.657996
  14        1.695028
  15        1.695028
  16        2.363273
  17        4.785729
  18        4.984177
  19        5.352818
  20        5.352819
 
  0.4166667E+00  0.4166667E+00  0.4166667E+00  0.3703704E-01
   1       -6.929519
   2       -6.565759
   3       -6.565759
   4       -6.565759
   5       -3.907105
   6       -3.907105
   7       -3.907105
   8       -3.500367
   9        1.376191
  10        1.376191
  11        1.376191
  12        1.904110
  13        1.904110
  14        1.904110
  15        2.170543
  16        2.170543
  17        4.042173
  18        4.669483
  19        4.669483
  20        4.669483
