       N       E                     dE             d eps       ncg     rms          rms(c)
DAV:   1     0.649603459599E+02    0.64960E+02   -0.94066E+03   400   0.104E+03
DAV:   2    -0.193120103769E+02   -0.84272E+02   -0.83893E+02   620   0.100E+02
DAV:   3    -0.210500461759E+02   -0.17380E+01   -0.17348E+01   540   0.208E+01
DAV:   4    -0.210552137036E+02   -0.51675E-02   -0.51670E-02   660   0.105E+00
DAV:   5    -0.210552148004E+02   -0.10969E-05   -0.10969E-05   540   0.152E-02    0.279E+00
RMM:   6    -0.209725862790E+02    0.82629E-01   -0.13516E-02   400   0.105E+00    0.173E+00
RMM:   7    -0.209300494751E+02    0.42537E-01   -0.35965E-02   400   0.166E+00    0.987E-02
RMM:   8    -0.209303133993E+02   -0.26392E-03   -0.52746E-04   364   0.131E-01    0.197E-02
RMM:   9    -0.209303513909E+02   -0.37992E-04   -0.70949E-05   258   0.498E-02
   1 F= -.20930351E+02 E0= -.20880831E+02  d E =-.990402E-01
