   8   8   0   0
  0.2392351E+02  0.5762863E-09  0.5762863E-09  0.5762863E-09  0.5000000E-15
  1.000000000000000E-004
  CAR 
 unknown system                          
      8.20318739    -10.76983194  301      0.73044545      1.00000000
    -10.770  0.0000E+00  0.0000E+00
    -10.707  0.0000E+00  0.0000E+00
    -10.643  0.0000E+00  0.0000E+00
    -10.580  0.0000E+00  0.0000E+00
    -10.517  0.0000E+00  0.0000E+00
    -10.454  0.0000E+00  0.0000E+00
    -10.390  0.0000E+00  0.0000E+00
    -10.327  0.0000E+00  0.0000E+00
    -10.264  0.0000E+00  0.0000E+00
    -10.201  0.0000E+00  0.0000E+00
    -10.137  0.0000E+00  0.0000E+00
    -10.074  0.0000E+00  0.0000E+00
    -10.011  0.0000E+00  0.0000E+00
     -9.948  0.6502E-16  0.4112E-17
     -9.884  0.1820E-14  0.1192E-15
     -9.821  0.5975E-13  0.3898E-14
     -9.758  0.1583E-11  0.1040E-12
     -9.695  0.3444E-10  0.2282E-11
     -9.631  0.6147E-09  0.4116E-10
     -9.568  0.9003E-08  0.6105E-09
     -9.505  0.1082E-06  0.7455E-08
     -9.442  0.1068E-05  0.7500E-07
     -9.378  0.8653E-05  0.6222E-06
     -9.315  0.5757E-04  0.4263E-05
     -9.252  0.3147E-03  0.2417E-04
     -9.189  0.1415E-02  0.1136E-03
     -9.126  0.5235E-02  0.4447E-03
     -9.062  0.1599E-01  0.1456E-02
     -8.999  0.4057E-01  0.4022E-02
     -8.936  0.8629E-01  0.9479E-02
     -8.873  0.1568E+00  0.1939E-01
     -8.809  0.2504E+00  0.3523E-01
     -8.746  0.3643E+00  0.5827E-01
     -8.683  0.4973E+00  0.8972E-01
     -8.620  0.6420E+00  0.1303E+00
     -8.556  0.7774E+00  0.1795E+00
     -8.493  0.8792E+00  0.2351E+00
     -8.430  0.9419E+00  0.2947E+00
     -8.367  0.9818E+00  0.3568E+00
     -8.303  0.1020E+01  0.4213E+00
     -8.240  0.1073E+01  0.4891E+00
     -8.177  0.1151E+01  0.5620E+00
     -8.114  0.1260E+01  0.6416E+00
     -8.050  0.1392E+01  0.7296E+00
     -7.987  0.1533E+01  0.8266E+00
     -7.924  0.1659E+01  0.9315E+00
     -7.861  0.1724E+01  0.1041E+01
     -7.797  0.1695E+01  0.1148E+01
     -7.734  0.1581E+01  0.1248E+01
     -7.671  0.1451E+01  0.1339E+01
     -7.608  0.1391E+01  0.1427E+01
     -7.544  0.1461E+01  0.1520E+01
     -7.481  0.1669E+01  0.1625E+01
     -7.418  0.1967E+01  0.1750E+01
     -7.355  0.2279E+01  0.1894E+01
     -7.291  0.2523E+01  0.2053E+01
     -7.228  0.2628E+01  0.2220E+01
     -7.165  0.2562E+01  0.2382E+01
     -7.102  0.2368E+01  0.2531E+01
     -7.038  0.2164E+01  0.2668E+01
     -6.975  0.2084E+01  0.2800E+01
     -6.912  0.2196E+01  0.2939E+01
     -6.849  0.2459E+01  0.3094E+01
     -6.785  0.2751E+01  0.3268E+01
     -6.722  0.2947E+01  0.3455E+01
     -6.659  0.2997E+01  0.3644E+01
     -6.596  0.2960E+01  0.3832E+01
     -6.533  0.2960E+01  0.4019E+01
     -6.469  0.3104E+01  0.4215E+01
     -6.406  0.3404E+01  0.4430E+01
     -6.343  0.3758E+01  0.4668E+01
     -6.280  0.4019E+01  0.4922E+01
     -6.216  0.4097E+01  0.5181E+01
     -6.153  0.3983E+01  0.5433E+01
     -6.090  0.3683E+01  0.5666E+01
     -6.027  0.3190E+01  0.5868E+01
     -5.963  0.2556E+01  0.6029E+01
     -5.900  0.1945E+01  0.6153E+01
     -5.837  0.1545E+01  0.6250E+01
     -5.774  0.1427E+01  0.6340E+01
     -5.710  0.1506E+01  0.6436E+01
     -5.647  0.1654E+01  0.6540E+01
     -5.584  0.1838E+01  0.6657E+01
     -5.521  0.2118E+01  0.6791E+01
     -5.457  0.2526E+01  0.6950E+01
     -5.394  0.2958E+01  0.7137E+01
     -5.331  0.3214E+01  0.7341E+01
     -5.268  0.3134E+01  0.7539E+01
     -5.204  0.2695E+01  0.7709E+01
     -5.141  0.2022E+01  0.7837E+01
     -5.078  0.1311E+01  0.7920E+01
     -5.015  0.7269E+00  0.7966E+01
     -4.951  0.3416E+00  0.7988E+01
     -4.888  0.1350E+00  0.7996E+01
     -4.825  0.4464E-01  0.7999E+01
     -4.762  0.1256E-01  0.8000E+01
     -4.698  0.4705E-02  0.8000E+01
     -4.635  0.1015E-01  0.8001E+01
     -4.572  0.3983E-01  0.8003E+01
     -4.509  0.1351E+00  0.8012E+01
     -4.445  0.3779E+00  0.8036E+01
     -4.382  0.8721E+00  0.8091E+01
     -4.319  0.1663E+01  0.8196E+01
     -4.256  0.2631E+01  0.8362E+01
     -4.193  0.3480E+01  0.8583E+01
     -4.129  0.3922E+01  0.8831E+01
     -4.066  0.3920E+01  0.9078E+01
     -4.003  0.3734E+01  0.9315E+01
     -3.940  0.3674E+01  0.9547E+01
     -3.876  0.3797E+01  0.9787E+01
     -3.813  0.3884E+01  0.1003E+02
     -3.750  0.3700E+01  0.1027E+02
     -3.687  0.3280E+01  0.1047E+02
     -3.623  0.2927E+01  0.1066E+02
     -3.560  0.2944E+01  0.1085E+02
     -3.497  0.3338E+01  0.1106E+02
     -3.434  0.3785E+01  0.1130E+02
     -3.370  0.3890E+01  0.1154E+02
     -3.307  0.3508E+01  0.1176E+02
     -3.244  0.2840E+01  0.1194E+02
     -3.181  0.2226E+01  0.1208E+02
     -3.117  0.1873E+01  0.1220E+02
     -3.054  0.1768E+01  0.1231E+02
     -2.991  0.1813E+01  0.1243E+02
     -2.928  0.1979E+01  0.1255E+02
     -2.864  0.2289E+01  0.1270E+02
     -2.801  0.2691E+01  0.1287E+02
     -2.738  0.2985E+01  0.1306E+02
     -2.675  0.2938E+01  0.1324E+02
     -2.611  0.2478E+01  0.1340E+02
     -2.548  0.1760E+01  0.1351E+02
     -2.485  0.1045E+01  0.1358E+02
     -2.422  0.5212E+00  0.1361E+02
     -2.358  0.2384E+00  0.1363E+02
     -2.295  0.1631E+00  0.1364E+02
     -2.232  0.2641E+00  0.1365E+02
     -2.169  0.5433E+00  0.1369E+02
     -2.105  0.9956E+00  0.1375E+02
     -2.042  0.1547E+01  0.1385E+02
     -1.979  0.2034E+01  0.1398E+02
     -1.916  0.2272E+01  0.1412E+02
     -1.853  0.2162E+01  0.1426E+02
     -1.789  0.1759E+01  0.1437E+02
     -1.726  0.1248E+01  0.1445E+02
     -1.663  0.8301E+00  0.1450E+02
     -1.600  0.6295E+00  0.1454E+02
     -1.536  0.6594E+00  0.1458E+02
     -1.473  0.8679E+00  0.1464E+02
     -1.410  0.1207E+01  0.1471E+02
     -1.347  0.1664E+01  0.1482E+02
     -1.283  0.2238E+01  0.1496E+02
     -1.220  0.2895E+01  0.1514E+02
     -1.157  0.3568E+01  0.1537E+02
     -1.094  0.4183E+01  0.1563E+02
     -1.030  0.4653E+01  0.1593E+02
     -0.967  0.4860E+01  0.1623E+02
     -0.904  0.4715E+01  0.1653E+02
     -0.841  0.4255E+01  0.1680E+02
     -0.777  0.3667E+01  0.1703E+02
     -0.714  0.3201E+01  0.1724E+02
     -0.651  0.3067E+01  0.1743E+02
     -0.588  0.3350E+01  0.1764E+02
     -0.524  0.3950E+01  0.1789E+02
     -0.461  0.4580E+01  0.1818E+02
     -0.398  0.4916E+01  0.1849E+02
     -0.335  0.4817E+01  0.1880E+02
     -0.271  0.4404E+01  0.1908E+02
     -0.208  0.3927E+01  0.1932E+02
     -0.145  0.3601E+01  0.1955E+02
     -0.082  0.3554E+01  0.1978E+02
     -0.018  0.3843E+01  0.2002E+02
      0.045  0.4414E+01  0.2030E+02
      0.108  0.5047E+01  0.2062E+02
      0.171  0.5437E+01  0.2096E+02
      0.235  0.5425E+01  0.2130E+02
      0.298  0.5162E+01  0.2163E+02
      0.361  0.5000E+01  0.2195E+02
      0.424  0.5169E+01  0.2227E+02
      0.487  0.5573E+01  0.2263E+02
      0.551  0.5896E+01  0.2300E+02
      0.614  0.5900E+01  0.2337E+02
      0.677  0.5584E+01  0.2373E+02
      0.740  0.5115E+01  0.2405E+02
      0.804  0.4699E+01  0.2435E+02
      0.867  0.4491E+01  0.2463E+02
      0.930  0.4519E+01  0.2492E+02
      0.993  0.4639E+01  0.2521E+02
      1.057  0.4652E+01  0.2550E+02
      1.120  0.4501E+01  0.2579E+02
      1.183  0.4316E+01  0.2606E+02
      1.246  0.4243E+01  0.2633E+02
      1.310  0.4283E+01  0.2660E+02
      1.373  0.4336E+01  0.2687E+02
      1.436  0.4370E+01  0.2715E+02
      1.499  0.4466E+01  0.2743E+02
      1.563  0.4693E+01  0.2773E+02
      1.626  0.4973E+01  0.2805E+02
      1.689  0.5124E+01  0.2837E+02
      1.752  0.5016E+01  0.2869E+02
      1.816  0.4665E+01  0.2898E+02
      1.879  0.4173E+01  0.2925E+02
      1.942  0.3611E+01  0.2947E+02
      2.005  0.3010E+01  0.2966E+02
      2.069  0.2435E+01  0.2982E+02
      2.132  0.2028E+01  0.2995E+02
      2.195  0.1926E+01  0.3007E+02
      2.258  0.2153E+01  0.3020E+02
      2.322  0.2562E+01  0.3037E+02
      2.385  0.2906E+01  0.3055E+02
      2.448  0.2989E+01  0.3074E+02
      2.511  0.2801E+01  0.3092E+02
      2.575  0.2478E+01  0.3107E+02
      2.638  0.2159E+01  0.3121E+02
      2.701  0.1878E+01  0.3133E+02
      2.764  0.1590E+01  0.3143E+02
      2.827  0.1266E+01  0.3151E+02
      2.891  0.9354E+00  0.3157E+02
      2.954  0.6752E+00  0.3161E+02
      3.017  0.5478E+00  0.3165E+02
      3.080  0.5550E+00  0.3168E+02
      3.144  0.6320E+00  0.3172E+02
      3.207  0.6935E+00  0.3176E+02
      3.270  0.6979E+00  0.3181E+02
      3.333  0.6714E+00  0.3185E+02
      3.397  0.6716E+00  0.3189E+02
      3.460  0.7363E+00  0.3194E+02
      3.523  0.8653E+00  0.3199E+02
      3.586  0.1032E+01  0.3206E+02
      3.650  0.1189E+01  0.3214E+02
      3.713  0.1281E+01  0.3222E+02
      3.776  0.1273E+01  0.3230E+02
      3.839  0.1202E+01  0.3237E+02
      3.903  0.1168E+01  0.3245E+02
      3.966  0.1259E+01  0.3253E+02
      4.029  0.1469E+01  0.3262E+02
      4.092  0.1696E+01  0.3273E+02
      4.156  0.1852E+01  0.3284E+02
      4.219  0.1959E+01  0.3297E+02
      4.282  0.2126E+01  0.3310E+02
      4.345  0.2417E+01  0.3325E+02
      4.409  0.2792E+01  0.3343E+02
      4.472  0.3186E+01  0.3363E+02
      4.535  0.3587E+01  0.3386E+02
      4.598  0.4008E+01  0.3411E+02
      4.662  0.4402E+01  0.3439E+02
      4.725  0.4680E+01  0.3469E+02
      4.788  0.4823E+01  0.3499E+02
      4.851  0.4919E+01  0.3530E+02
      4.915  0.5048E+01  0.3562E+02
      4.978  0.5169E+01  0.3595E+02
      5.041  0.5150E+01  0.3628E+02
      5.104  0.4932E+01  0.3659E+02
      5.168  0.4618E+01  0.3688E+02
      5.231  0.4365E+01  0.3716E+02
      5.294  0.4226E+01  0.3742E+02
      5.357  0.4134E+01  0.3768E+02
      5.420  0.4014E+01  0.3794E+02
      5.484  0.3831E+01  0.3818E+02
      5.547  0.3560E+01  0.3841E+02
      5.610  0.3180E+01  0.3861E+02
      5.673  0.2741E+01  0.3878E+02
      5.737  0.2361E+01  0.3893E+02
      5.800  0.2119E+01  0.3906E+02
      5.863  0.1985E+01  0.3919E+02
      5.926  0.1875E+01  0.3931E+02
      5.990  0.1756E+01  0.3942E+02
      6.053  0.1661E+01  0.3952E+02
      6.116  0.1618E+01  0.3963E+02
      6.179  0.1581E+01  0.3973E+02
      6.243  0.1455E+01  0.3982E+02
      6.306  0.1188E+01  0.3989E+02
      6.369  0.8299E+00  0.3995E+02
      6.432  0.4857E+00  0.3998E+02
      6.496  0.2358E+00  0.3999E+02
      6.559  0.9449E-01  0.4000E+02
      6.622  0.3117E-01  0.4000E+02
      6.685  0.8457E-02  0.4000E+02
      6.749  0.1885E-02  0.4000E+02
      6.812  0.3452E-03  0.4000E+02
      6.875  0.5190E-04  0.4000E+02
      6.938  0.6407E-05  0.4000E+02
      7.002  0.6493E-06  0.4000E+02
      7.065  0.5401E-07  0.4000E+02
      7.128  0.3688E-08  0.4000E+02
      7.191  0.2066E-09  0.4000E+02
      7.255  0.9500E-11  0.4000E+02
      7.318  0.3589E-12  0.4000E+02
      7.381  0.1092E-13  0.4000E+02
      7.444  0.0000E+00  0.4000E+02
      7.508  0.0000E+00  0.4000E+02
      7.571  0.0000E+00  0.4000E+02
      7.634  0.0000E+00  0.4000E+02
      7.697  0.0000E+00  0.4000E+02
      7.760  0.0000E+00  0.4000E+02
      7.824  0.0000E+00  0.4000E+02
      7.887  0.0000E+00  0.4000E+02
      7.950  0.0000E+00  0.4000E+02
      8.013  0.0000E+00  0.4000E+02
      8.077  0.0000E+00  0.4000E+02
      8.140  0.0000E+00  0.4000E+02
      8.203  0.0000E+00  0.4000E+02
