    8    8    1    1
  0.2392351E+02  0.5762863E-09  0.5762863E-09  0.5762863E-09  0.5000000E-15
  1.000000000000000E-004
  CAR 
 unknown system                          
   24   10   20
 
  0.8333333E-01  0.8333333E-01  0.8333333E-01  0.3703704E-01
   1       -8.769832
   2       -5.429320
   3       -5.429320
   4       -5.429320
   5       -4.183471
   6       -4.183471
   7       -4.183471
   8       -0.116277
   9       -0.116277
  10       -0.116277
  11        0.312210
  12        0.312210
  13        0.312210
  14        2.429690
  15        3.463985
  16        3.463986
  17        3.658583
  18        3.658584
  19        3.658585
  20        4.250705
 
  0.2500000E+00  0.8333333E-01  0.8333333E-01  0.1111111E+00
   1       -8.539611
   2       -6.511034
   3       -5.337414
   4       -5.337414
   5       -4.176202
   6       -4.176202
   7       -2.833742
   8       -0.718558
   9       -0.718558
  10        0.109168
  11        0.109168
  12        0.182607
  13        0.560929
  14        1.196545
  15        2.627212
  16        2.787326
  17        3.771367
  18        4.421147
  19        4.421148
  20        4.726695
 
  0.4166667E+00  0.8333333E-01  0.8333333E-01  0.1111111E+00
   1       -8.081662
   2       -7.401798
   3       -5.230387
   4       -5.230387
   5       -4.185009
   6       -4.185009
   7       -1.447371
   8       -1.060958
   9       -1.060958
  10       -0.236014
  11       -0.236014
  12       -0.097728
  13        0.787212
  14        1.049477
  15        1.689825
  16        1.756016
  17        4.093260
  18        4.631522
  19        5.554568
  20        5.986269
 
  0.2500000E+00  0.2500000E+00  0.8333333E-01  0.1111111E+00
   1       -8.312986
   2       -6.344575
   3       -6.344575
   4       -5.436201
   5       -4.092278
   6       -3.060691
   7       -3.060691
   8       -1.194089
   9       -0.379783
  10       -0.379783
  11        0.116062
  12        0.491026
  13        0.491026
  14        0.737630
  15        1.869250
  16        3.176836
  17        4.097858
  18        4.640383
  19        4.640385
  20        5.281020
 
  0.4166667E+00  0.2500000E+00  0.8333333E-01  0.2222222E+00
   1       -7.863661
   2       -7.201117
   3       -6.045366
   4       -5.697101
   5       -3.845129
   6       -3.452875
   7       -1.995910
   8       -1.224098
   9       -0.960772
  10       -0.894243
  11        0.214199
  12        0.490640
  13        0.716699
  14        0.980048
  15        1.287238
  16        2.364639
  17        5.025999
  18        5.061380
  19        5.565348
  20        6.203187
 
  0.4166667E+00  0.4166667E+00  0.8333333E-01  0.1111111E+00
   1       -7.435266
   2       -6.815465
   3       -6.815465
   4       -6.285116
   5       -3.339299
   6       -2.699327
   7       -2.699327
   8       -1.874913
   9       -0.998870
  10       -0.475112
  11       -0.475112
  12        0.173573
  13        1.514709
  14        1.581312
  15        1.581312
  16        2.448134
  17        4.840261
  18        5.495178
  19        5.827882
  20        5.827908
 
  0.2500000E+00  0.2500000E+00  0.2500000E+00  0.3703704E-01
   1       -8.091647
   2       -6.235265
   3       -6.235265
   4       -6.235265
   5       -3.421442
   6       -3.421442
   7       -3.421442
   8       -0.907963
   9       -0.495317
  10       -0.495317
  11       -0.495317
  12        0.960841
  13        0.960841
  14        0.960841
  15        2.658173
  16        2.658173
  17        4.379473
  18        4.379473
  19        4.379473
  20        4.450490
 
  0.4166667E+00  0.2500000E+00  0.2500000E+00  0.1111111E+00
   1       -7.655672
   2       -7.022628
   3       -6.105258
   4       -6.105258
   5       -3.771582
   6       -3.771582
   7       -2.701667
   8       -1.877481
   9       -0.435868
  10       -0.435868
  11        0.660700
  12        1.028587
  13        1.028587
  14        1.391296
  15        1.943156
  16        1.988363
  17        4.878015
  18        4.977142
  19        5.256071
  20        5.256072
 
  0.4166667E+00  0.4166667E+00  0.2500000E+00  0.1111111E+00
   1       -7.254387
   2       -6.701576
   3       -6.701576
   4       -6.338816
   5       -3.804840
   6       -3.396788
   7       -3.396788
   8       -2.743428
   9        0.064404
  10        0.519689
  11        0.519689
  12        1.316010
  13        1.657974
  14        1.695007
  15        1.695007
  16        2.363252
  17        4.785714
  18        4.984163
  19        5.352806
  20        5.352809
 
  0.4166667E+00  0.4166667E+00  0.4166667E+00  0.3703704E-01
   1       -6.929535
   2       -6.565775
   3       -6.565775
   4       -6.565775
   5       -3.907120
   6       -3.907120
   7       -3.907120
   8       -3.500383
   9        1.376172
  10        1.376172
  11        1.376172
  12        1.904089
  13        1.904089
  14        1.904089
  15        2.170522
  16        2.170522
  17        4.042162
  18        4.669469
  19        4.669469
  20        4.669470
