 running on   20 total cores
 distrk:  each k-point on   20 cores,    1 groups
 distr:  one band on    1 cores,   20 groups
 using from now: INCAR     
 vasp.5.3.3 18Dez12 (build Dec 13 2014 13:36:02) complex                        
  
 POSCAR found type information on POSCAR  Ga
 POSCAR found :  1 types and       8 ions
 scaLAPACK will be used

 ----------------------------------------------------------------------------- 
|                                                                             |
|           W    W    AA    RRRRR   N    N  II  N    N   GGGG   !!!           |
|           W    W   A  A   R    R  NN   N  II  NN   N  G    G  !!!           |
|           W    W  A    A  R    R  N N  N  II  N N  N  G       !!!           |
|           W WW W  AAAAAA  RRRRR   N  N N  II  N  N N  G  GGG   !            |
|           WW  WW  A    A  R   R   N   NN  II  N   NN  G    G                |
|           W    W  A    A  R    R  N    N  II  N    N   GGGG   !!!           |
|                                                                             |
|      For optimal performance we recommend that you set                      |
|        NPAR = 4 - approx SQRT( number of cores)                             |
|      (number of cores/NPAR must be integer)                                 |
|      This setting will greatly improve the performance of VASP for DFT.     |
|      The default NPAR=number of cores might be grossly inefficient          |
|      on modern multi-core architectures or massively parallel machines.     |
|      Do your own testing.                                                   |
|      Unfortunately you need to use the default for hybrid, GW and RPA       |
|      calculations.                                                          |
|                                                                             |
 ----------------------------------------------------------------------------- 

 WARNING: PSMAXN for non-local potential too small
 LDA part: xc-table for Pade appr. of Perdew
 POSCAR, INCAR and KPOINTS ok, starting setup
 WARNING: small aliasing (wrap around) errors must be expected
 FFT: planning ...
 WAVECAR not read
 entering main loop
       N       E                     dE             d eps       ncg     rms          rms(c)
DAV:   1     0.846020092529E+02    0.84602E+02   -0.11564E+04   400   0.143E+03
DAV:   2    -0.185138525924E+02   -0.10312E+03   -0.10275E+03   600   0.113E+02
DAV:   3    -0.210316228007E+02   -0.25178E+01   -0.24602E+01   400   0.239E+01
DAV:   4    -0.210555197363E+02   -0.23897E-01   -0.23816E-01   780   0.202E+00
DAV:   5    -0.210555241293E+02   -0.43930E-05   -0.43929E-05   400   0.182E-02    0.279E+00
RMM:   6    -0.209728603669E+02    0.82664E-01   -0.13534E-02   400   0.105E+00    0.173E+00
RMM:   7    -0.209303193010E+02    0.42541E-01   -0.36011E-02   402   0.167E+00    0.987E-02
RMM:   8    -0.209305841069E+02   -0.26481E-03   -0.52862E-04   365   0.132E-01    0.197E-02
RMM:   9    -0.209306221292E+02   -0.38022E-04   -0.71090E-05   261   0.503E-02
   1 F= -.20930622E+02 E0= -.20881102E+02  d E =-.990405E-01
