       N       E                     dE             d eps       ncg     rms          rms(c)
DAV:   1     0.846020092529E+02    0.84602E+02   -0.11564E+04   400   0.143E+03
DAV:   2    -0.185138525924E+02   -0.10312E+03   -0.10275E+03   600   0.113E+02
DAV:   3    -0.210316228007E+02   -0.25178E+01   -0.24602E+01   400   0.239E+01
DAV:   4    -0.210555197363E+02   -0.23897E-01   -0.23816E-01   780   0.202E+00
DAV:   5    -0.210555241293E+02   -0.43930E-05   -0.43929E-05   400   0.182E-02    0.279E+00
RMM:   6    -0.209728603669E+02    0.82664E-01   -0.13534E-02   400   0.105E+00    0.173E+00
RMM:   7    -0.209303193010E+02    0.42541E-01   -0.36011E-02   402   0.167E+00    0.987E-02
RMM:   8    -0.209305841069E+02   -0.26481E-03   -0.52862E-04   365   0.132E-01    0.197E-02
RMM:   9    -0.209306221292E+02   -0.38022E-04   -0.71090E-05   261   0.503E-02
   1 F= -.20930622E+02 E0= -.20881102E+02  d E =-.990405E-01
