<?xml version="1.0" encoding="ISO-8859-1"?>
<modeling>
 <generator>
  <i name="program" type="string">vasp </i>
  <i name="version" type="string">5.3.3  </i>
  <i name="subversion" type="string">18Dez12 (build Dec 13 2014 13:36:02) complex                          parallel </i>
  <i name="platform" type="string">LinuxIFC </i>
  <i name="date" type="string">2018 11 27 </i>
  <i name="time" type="string">23:21:45 </i>
 </generator>
 <incar>
  <i type="string" name="PREC">normal</i>
  <i type="string" name="ALGO"> Fast</i>
  <i type="int" name="ISPIN">     1</i>
  <i type="int" name="IBRION">    -1</i>
  <i type="int" name="NSW">     0</i>
  <i type="int" name="ISYM">     1</i>
  <i name="ENCUT">    900.00000000</i>
  <i type="int" name="ISMEAR">     0</i>
  <i name="SIGMA">      0.20000000</i>
  <i type="logical" name="LWAVE"> F  </i>
  <i type="logical" name="LCHARG"> F  </i>
 </incar>
 <kpoints>
  <generation param="Monkhorst-Pack">
   <v type="int" name="divisions">       6        6        6 </v>
   <v name="usershift">      0.00000000       0.00000000       0.00000000 </v>
   <v name="genvec1">      0.16666667       0.00000000       0.00000000 </v>
   <v name="genvec2">      0.00000000       0.16666667       0.00000000 </v>
   <v name="genvec3">      0.00000000       0.00000000       0.16666667 </v>
   <v name="shift">      0.50000000       0.50000000       0.50000000 </v>
  </generation>
  <varray name="kpointlist" >
   <v>       0.08333333       0.08333333       0.08333333 </v>
   <v>       0.25000000       0.08333333       0.08333333 </v>
   <v>       0.41666667       0.08333333       0.08333333 </v>
   <v>       0.25000000       0.25000000       0.08333333 </v>
   <v>       0.41666667       0.25000000       0.08333333 </v>
   <v>       0.41666667       0.41666667       0.08333333 </v>
   <v>       0.25000000       0.25000000       0.25000000 </v>
   <v>       0.41666667       0.25000000       0.25000000 </v>
   <v>       0.41666667       0.41666667       0.25000000 </v>
   <v>       0.41666667       0.41666667       0.41666667 </v>
  </varray>
  <varray name="weights" >
   <v>       0.03703704 </v>
   <v>       0.11111111 </v>
   <v>       0.11111111 </v>
   <v>       0.11111111 </v>
   <v>       0.22222222 </v>
   <v>       0.11111111 </v>
   <v>       0.03703704 </v>
   <v>       0.11111111 </v>
   <v>       0.11111111 </v>
   <v>       0.03703704 </v>
  </varray>
 </kpoints>
 <parameters>
  <separator name="general" >
   <i type="string" name="SYSTEM">unknown system</i>
   <i type="logical" name="LCOMPAT"> F  </i>
  </separator>
  <separator name="electronic" >
   <i type="string" name="PREC">normal</i>
   <i name="ENMAX">    900.00000000</i>
   <i name="ENAUG">    320.26400000</i>
   <i name="EDIFF">      0.00010000</i>
   <i type="int" name="IALGO">    68</i>
   <i type="int" name="IWAVPR">    10</i>
   <i type="int" name="NBANDS">    20</i>
   <i name="NELECT">     24.00000000</i>
   <i type="int" name="TURBO">     0</i>
   <i type="int" name="IRESTART">     0</i>
   <i type="int" name="NREBOOT">     0</i>
   <i type="int" name="NMIN">     0</i>
   <i name="EREF">      0.00000000</i>
   <separator name="electronic smearing" >
    <i type="int" name="ISMEAR">     0</i>
    <i name="SIGMA">      0.20000000</i>
    <i name="KSPACING">      0.50000000</i>
    <i type="logical" name="KGAMMA"> T  </i>
   </separator>
   <separator name="electronic projectors" >
    <i type="logical" name="LREAL"> F  </i>
    <v name="ROPT">      0.00000000</v>
    <i type="int" name="LMAXPAW">  -100</i>
    <i type="int" name="LMAXMIX">     2</i>
    <i type="logical" name="NLSPLINE"> F  </i>
   </separator>
   <separator name="electronic startup" >
    <i type="int" name="ISTART">     0</i>
    <i type="int" name="ICHARG">     2</i>
    <i type="int" name="INIWAV">     1</i>
   </separator>
   <separator name="electronic spin" >
    <i type="int" name="ISPIN">     1</i>
    <i type="logical" name="LNONCOLLINEAR"> F  </i>
    <v name="MAGMOM">      1.00000000      1.00000000      1.00000000      1.00000000      1.00000000      1.00000000      1.00000000      1.00000000</v>
    <i name="NUPDOWN">     -1.00000000</i>
    <i type="logical" name="LSORBIT"> F  </i>
    <v name="SAXIS">      0.00000000      0.00000000      1.00000000</v>
    <i type="logical" name="LSPIRAL"> F  </i>
    <v name="QSPIRAL">      0.00000000      0.00000000      0.00000000</v>
    <i type="logical" name="LZEROZ"> F  </i>
   </separator>
   <separator name="electronic exchange-correlation" >
    <i type="logical" name="LASPH"> F  </i>
    <i type="logical" name="LMETAGGA"> F  </i>
   </separator>
   <separator name="electronic convergence" >
    <i type="int" name="NELM">    60</i>
    <i type="int" name="NELMDL">    -5</i>
    <i type="int" name="NELMIN">     2</i>
    <i name="ENINI">    900.00000000</i>
    <separator name="electronic convergence detail" >
     <i type="logical" name="LDIAG"> T  </i>
     <i type="logical" name="LSUBROT"> T  </i>
     <i name="WEIMIN">      0.00000000</i>
     <i name="EBREAK">      0.00000125</i>
     <i name="DEPER">      0.30000000</i>
     <i type="int" name="NRMM">     4</i>
     <i name="TIME">      0.40000000</i>
    </separator>
   </separator>
   <separator name="electronic mixer" >
    <i name="AMIX">      0.40000000</i>
    <i name="BMIX">      1.00000000</i>
    <i name="AMIN">      0.10000000</i>
    <i name="AMIX_MAG">      1.60000000</i>
    <i name="BMIX_MAG">      1.00000000</i>
    <separator name="electronic mixer details" >
     <i type="int" name="IMIX">     4</i>
     <i type="int" name="MAXMIX">   -45</i>
     <i name="WC">    100.00000000</i>
     <i type="int" name="INIMIX">     1</i>
     <i type="int" name="MIXPRE">     1</i>
     <i type="int" name="MREMOVE">     5</i>
    </separator>
   </separator>
   <separator name="electronic dipolcorrection" >
    <i type="logical" name="LDIPOL"> F  </i>
    <i type="logical" name="LMONO"> F  </i>
    <i type="int" name="IDIPOL">     0</i>
    <i name="EPSILON">      1.00000000</i>
    <v name="DIPOL">   -100.00000000   -100.00000000   -100.00000000</v>
    <i name="EFIELD">      0.00000000</i>
   </separator>
  </separator>
  <separator name="grids" >
   <i type="int" name="NGX">    42</i>
   <i type="int" name="NGY">    42</i>
   <i type="int" name="NGZ">    42</i>
   <i type="int" name="NGXF">    84</i>
   <i type="int" name="NGYF">    84</i>
   <i type="int" name="NGZF">    84</i>
   <i type="logical" name="ADDGRID"> F  </i>
  </separator>
  <separator name="ionic" >
   <i type="int" name="NSW">     0</i>
   <i type="int" name="IBRION">    -1</i>
   <i type="int" name="ISIF">     2</i>
   <i name="PSTRESS">      0.00000000</i>
   <i name="EDIFFG">      0.00100000</i>
   <i type="int" name="NFREE">     0</i>
   <i name="POTIM">      0.50000000</i>
   <i name="SMASS">     -3.00000000</i>
   <i name="SCALEE">      1.00000000</i>
  </separator>
  <separator name="ionic md" >
   <i name="TEBEG">      0.00010000</i>
   <i name="TEEND">      0.00010000</i>
   <i type="int" name="NBLOCK">     1</i>
   <i type="int" name="KBLOCK">     1</i>
   <i type="int" name="NPACO">   256</i>
   <i name="APACO">     16.00000000</i>
  </separator>
  <separator name="symmetry" >
   <i type="int" name="ISYM">     1</i>
   <i name="SYMPREC">      0.00001000</i>
  </separator>
  <separator name="dos" >
   <i type="logical" name="LORBIT"> F  </i>
   <v name="RWIGS">     -1.00000000</v>
   <i type="int" name="NEDOS">   301</i>
   <i name="EMIN">     10.00000000</i>
   <i name="EMAX">    -10.00000000</i>
   <i name="EFERMI">      0.00000000</i>
  </separator>
  <separator name="writing" >
   <i type="int" name="NWRITE">     2</i>
   <i type="logical" name="LWAVE"> F  </i>
   <i type="logical" name="LCHARG"> F  </i>
   <i type="logical" name="LPARD"> F  </i>
   <i type="logical" name="LVTOT"> F  </i>
   <i type="logical" name="LVHAR"> F  </i>
   <i type="logical" name="LELF"> F  </i>
   <i type="logical" name="LOPTICS"> F  </i>
   <v name="STM">      0.00000000      0.00000000      0.00000000      0.00000000      0.00000000      0.00000000      0.00000000</v>
  </separator>
  <separator name="performance" >
   <i type="int" name="NPAR">    20</i>
   <i type="int" name="NSIM">     4</i>
   <i type="int" name="NBLK">    -1</i>
   <i type="logical" name="LPLANE"> T  </i>
   <i type="logical" name="LSCALAPACK"> T  </i>
   <i type="logical" name="LSCAAWARE"> F  </i>
   <i type="logical" name="LSCALU"> F  </i>
   <i type="logical" name="LASYNC"> F  </i>
   <i type="logical" name="LORBITALREAL"> F  </i>
  </separator>
  <separator name="miscellaneous" >
   <i type="int" name="IDIOT">     3</i>
   <i type="logical" name="LMUSIC"> F  </i>
   <v name="POMASS">     69.72300000</v>
   <v name="DARWINR">      0.00000000</v>
   <v name="DARWINV">      1.00000000</v>
   <i type="logical" name="LCORR"> T  </i>
  </separator>
  <i type="logical" name="GGA_COMPAT"> T  </i>
  <i type="logical" name="LBERRY"> F  </i>
  <i type="int" name="ICORELEVEL">     0</i>
  <i type="logical" name="LDAU"> F  </i>
  <i type="int" name="I_CONSTRAINED_M">     0</i>
  <separator name="electronic exchange-correlation" >
   <i type="string" name="GGA">--</i>
   <i type="int" name="VOSKOWN">     0</i>
   <i type="logical" name="LHFCALC"> F  </i>
   <i type="string" name="PRECFOCK"></i>
   <i type="logical" name="LSYMGRAD"> F  </i>
   <i type="logical" name="LHFONE"> F  </i>
   <i type="logical" name="LRHFCALC"> F  </i>
   <i type="logical" name="LTHOMAS"> F  </i>
   <i type="logical" name="LMODELHF"> F  </i>
   <i name="ENCUT4O">     -1.00000000</i>
   <i type="int" name="EXXOEP">     0</i>
   <i type="int" name="FOURORBIT">     0</i>
   <i name="AEXX">      0.00000000</i>
   <i name="HFALPHA">      0.00000000</i>
   <i name="MCALPHA">      0.00000000</i>
   <i name="ALDAX">      1.00000000</i>
   <i name="AGGAX">      1.00000000</i>
   <i name="ALDAC">      1.00000000</i>
   <i name="AGGAC">      1.00000000</i>
   <i type="int" name="NKREDX">     1</i>
   <i type="int" name="NKREDY">     1</i>
   <i type="int" name="NKREDZ">     1</i>
   <i type="logical" name="SHIFTRED"> F  </i>
   <i type="logical" name="ODDONLY"> F  </i>
   <i type="logical" name="EVENONLY"> F  </i>
   <i type="int" name="LMAXFOCK">     0</i>
   <i type="int" name="NMAXFOCKAE">     0</i>
   <i type="logical" name="LFOCKAEDFT"> F  </i>
   <i name="HFSCREEN">      0.00000000</i>
   <i name="HFSCREENC">      0.00000000</i>
   <i type="int" name="NBANDSGWLOW">     0</i>
  </separator>
  <separator name="vdW DFT" >
   <i type="logical" name="LUSE_VDW"> F  </i>
   <i name="Zab_VDW">     -0.84910000</i>
   <i name="PARAM1">      0.12340000</i>
   <i name="PARAM2">      1.00000000</i>
   <i name="PARAM3">      0.00000000</i>
  </separator>
  <separator name="model GW" >
   <i type="int" name="MODEL_GW">     0</i>
   <i name="MODEL_EPS0">     14.35410601</i>
   <i name="MODEL_ALPHA">      1.00000000</i>
  </separator>
  <separator name="linear response parameters" >
   <i type="logical" name="LEPSILON"> F  </i>
   <i type="logical" name="LRPA"> F  </i>
   <i type="logical" name="LNABLA"> F  </i>
   <i type="logical" name="LVEL"> F  </i>
   <i type="int" name="KINTER">     0</i>
   <i name="CSHIFT">      0.10000000</i>
   <i name="OMEGAMAX">     -1.00000000</i>
   <i name="DEG_THRESHOLD">      0.00200000</i>
  </separator>
  <separator name="orbital magnetization" >
   <i type="logical" name="NUCIND"> F  </i>
   <v name="MAGPOS">      0.00000000      0.00000000      0.00000000</v>
   <i type="logical" name="LNICSALL"> T  </i>
   <i type="logical" name="ORBITALMAG"> F  </i>
   <i type="logical" name="LMAGBLOCH"> F  </i>
   <i type="logical" name="LCHIMAG"> F  </i>
   <i type="logical" name="LGAUGE"> T  </i>
   <i type="int" name="MAGATOM">     0</i>
   <v name="MAGDIPOL">      0.00000000      0.00000000      0.00000000</v>
   <v name="AVECCONST">      0.00000000      0.00000000      0.00000000</v>
  </separator>
  <separator name="response functions" >
   <i type="logical" name="LADDER"> F  </i>
   <i type="logical" name="LFXC"> F  </i>
   <i type="logical" name="LHARTREE"> T  </i>
   <i type="int" name="IBSE">     0</i>
   <i type="logical" name="LTCTE"> F  </i>
   <i type="logical" name="LTETE"> F  </i>
   <i type="logical" name="LTRIPLET"> F  </i>
   <i type="logical" name="LFXCEPS"> F  </i>
   <i type="logical" name="L2ORDER"> F  </i>
   <i type="logical" name="LUSEW"> F  </i>
   <i name="ENCUTGW">     -2.00000000</i>
   <i name="ENCUTGWSOFT">     -2.00000000</i>
   <i name="ENCUTLF">     -1.00000000</i>
   <i type="int" name="LMAXMP2">    -1</i>
   <i name="SCISSOR">      0.00000000</i>
   <i type="int" name="NOMEGA">     0</i>
   <i type="int" name="NOMEGAR">     0</i>
   <i type="int" name="NBANDSGW">    -1</i>
   <i type="int" name="NBANDSO">    -1</i>
   <i type="int" name="NBANDSV">    -1</i>
   <i type="int" name="NELM">     1</i>
   <i type="int" name="DIM">     3</i>
   <i type="int" name="ANTIRES">     0</i>
   <i name="OMEGAMAX">    -30.00000000</i>
   <i name="OMEGATL">   -200.00000000</i>
   <i type="int" name="OMEGAGRID">     0</i>
   <i name="CSHIFT">     -0.10000000</i>
   <i type="logical" name="SELFENERGY"> F  </i>
   <i type="logical" name="LSPECTRAL"> F  </i>
   <i type="logical" name="ODDONLYGW"> F  </i>
   <i type="logical" name="EVENONLYGW"> F  </i>
   <i type="int" name="NKREDLFX">     1</i>
   <i type="int" name="NKREDLFY">     1</i>
   <i type="int" name="NKREDLFZ">     1</i>
   <i type="int" name="MAXMEM">  1800</i>
   <i type="int" name="TELESCOPE">     0</i>
  </separator>
 </parameters>
 <atominfo>
  <atoms>       8 </atoms>
  <types>       1 </types>
  <array name="atoms" >
   <dimension dim="1">ion</dimension>
   <field type="string">element</field>
   <field type="int">atomtype</field>
   <set>
    <rc><c>Ga</c><c>   1</c></rc>
    <rc><c>Ga</c><c>   1</c></rc>
    <rc><c>Ga</c><c>   1</c></rc>
    <rc><c>Ga</c><c>   1</c></rc>
    <rc><c>Ga</c><c>   1</c></rc>
    <rc><c>Ga</c><c>   1</c></rc>
    <rc><c>Ga</c><c>   1</c></rc>
    <rc><c>Ga</c><c>   1</c></rc>
   </set>
  </array>
  <array name="atomtypes" >
   <dimension dim="1">type</dimension>
   <field type="int">atomspertype</field>
   <field type="string">element</field>
   <field>mass</field>
   <field>valence</field>
   <field type="string">pseudopotential</field>
   <set>
    <rc><c>   8</c><c>Ga</c><c>     69.72300000</c><c>      3.00000000</c><c> PAW_PBE Ga 08Apr2002                   </c></rc>
   </set>
  </array>
 </atominfo>
 <structure name="initialpos" >
  <crystal>
   <varray name="basis" >
    <v>       5.76286300       0.00000000       0.00000000 </v>
    <v>       0.00000000       5.76286300       0.00000000 </v>
    <v>       0.00000000       0.00000000       5.76286300 </v>
   </varray>
   <i name="volume">    191.38808007 </i>
   <varray name="rec_basis" >
    <v>       0.17352486       0.00000000       0.00000000 </v>
    <v>       0.00000000       0.17352486       0.00000000 </v>
    <v>       0.00000000       0.00000000       0.17352486 </v>
   </varray>
  </crystal>
  <varray name="positions" >
   <v>       0.75000000       0.75000000       0.75000000 </v>
   <v>       0.50000000       0.00000000       0.00000000 </v>
   <v>       0.75000000       0.25000000       0.25000000 </v>
   <v>       0.50000000       0.50000000       0.50000000 </v>
   <v>       0.25000000       0.75000000       0.25000000 </v>
   <v>       0.00000000       0.00000000       0.50000000 </v>
   <v>       0.25000000       0.25000000       0.75000000 </v>
   <v>       0.00000000       0.50000000       0.00000000 </v>
  </varray>
 </structure>
 <calculation>
  <scstep>
   <time name="dav">    0.32    0.33</time>
   <time name="total">    0.37    0.38</time>
   <energy>
    <i name="alphaZ">     59.64982895 </i>
    <i name="ewald">   -484.56382983 </i>
    <i name="hartreedc">    -22.55400904 </i>
    <i name="XCdc">   -155.28695325 </i>
    <i name="pawpsdc">    330.10196642 </i>
    <i name="pawaedc">   -140.54714835 </i>
    <i name="eentropy">     -0.04733754 </i>
    <i name="bandstr">     26.89917564 </i>
    <i name="atom">    470.95031625 </i>
    <i name="e_fr_energy">     84.60200925 </i>
    <i name="e_wo_entrp">     84.64934679 </i>
    <i name="e_0_energy">     84.62567802 </i>
   </energy>
  </scstep>
  <scstep>
   <time name="dav">    0.44    0.44</time>
   <time name="total">    0.44    0.44</time>
   <energy>
    <i name="e_fr_energy">    -18.51385259 </i>
    <i name="e_wo_entrp">    -18.41499685 </i>
    <i name="e_0_energy">    -18.46442472 </i>
   </energy>
  </scstep>
  <scstep>
   <time name="dav">    0.31    0.32</time>
   <time name="total">    0.32    0.32</time>
   <energy>
    <i name="e_fr_energy">    -21.03162280 </i>
    <i name="e_wo_entrp">    -20.93284397 </i>
    <i name="e_0_energy">    -20.98223338 </i>
   </energy>
  </scstep>
  <scstep>
   <time name="dav">    0.57    0.58</time>
   <time name="total">    0.57    0.58</time>
   <energy>
    <i name="e_fr_energy">    -21.05551974 </i>
    <i name="e_wo_entrp">    -20.95661899 </i>
    <i name="e_0_energy">    -21.00606936 </i>
   </energy>
  </scstep>
  <scstep>
   <time name="dav">    0.31    0.32</time>
   <time name="total">    0.45    0.46</time>
   <energy>
    <i name="e_fr_energy">    -21.05552413 </i>
    <i name="e_wo_entrp">    -20.95662333 </i>
    <i name="e_0_energy">    -21.00607373 </i>
   </energy>
  </scstep>
  <scstep>
   <time name="diag">    0.07    0.10</time>
   <time name="diis">    0.26    0.26</time>
   <time name="orth">    0.01    0.01</time>
   <time name="total">    0.50    0.58</time>
   <energy>
    <i name="e_fr_energy">    -20.97286037 </i>
    <i name="e_wo_entrp">    -20.87395420 </i>
    <i name="e_0_energy">    -20.92340728 </i>
   </energy>
  </scstep>
  <scstep>
   <time name="diag">    0.05    0.05</time>
   <time name="diis">    0.29    0.29</time>
   <time name="orth">    0.01    0.01</time>
   <time name="total">    0.51    0.51</time>
   <energy>
    <i name="e_fr_energy">    -20.93031930 </i>
    <i name="e_wo_entrp">    -20.83134834 </i>
    <i name="e_0_energy">    -20.88083382 </i>
   </energy>
  </scstep>
  <scstep>
   <time name="diag">    0.05    0.05</time>
   <time name="diis">    0.36    0.36</time>
   <time name="orth">    0.01    0.01</time>
   <time name="total">    0.58    0.58</time>
   <energy>
    <i name="e_fr_energy">    -20.93058411 </i>
    <i name="e_wo_entrp">    -20.83156062 </i>
    <i name="e_0_energy">    -20.88107236 </i>
   </energy>
  </scstep>
  <scstep>
   <time name="diag">    0.05    0.05</time>
   <time name="diis">    0.34    0.35</time>
   <time name="orth">    0.01    0.01</time>
   <time name="total">    0.43    0.43</time>
   <energy>
    <i name="alphaZ">     59.64982895 </i>
    <i name="ewald">   -484.56382983 </i>
    <i name="hartreedc">    -24.22792780 </i>
    <i name="XCdc">   -153.71875410 </i>
    <i name="pawpsdc">    419.84767151 </i>
    <i name="pawaedc">   -231.70344681 </i>
    <i name="eentropy">     -0.09904050 </i>
    <i name="bandstr">    -77.06543981 </i>
    <i name="atom">    470.95031625 </i>
    <i name="e_fr_energy">    -20.93062213 </i>
    <i name="e_wo_entrp">    -20.83158163 </i>
    <i name="e_0_energy">    -20.88110188 </i>
   </energy>
  </scstep>
  <structure>
   <crystal>
    <varray name="basis" >
     <v>       5.76286300       0.00000000       0.00000000 </v>
     <v>       0.00000000       5.76286300       0.00000000 </v>
     <v>       0.00000000       0.00000000       5.76286300 </v>
    </varray>
    <i name="volume">    191.38808007 </i>
    <varray name="rec_basis" >
     <v>       0.17352486       0.00000000       0.00000000 </v>
     <v>       0.00000000       0.17352486       0.00000000 </v>
     <v>       0.00000000       0.00000000       0.17352486 </v>
    </varray>
   </crystal>
   <varray name="positions" >
    <v>       0.75000000       0.75000000       0.75000000 </v>
    <v>       0.50000000       0.00000000       0.00000000 </v>
    <v>       0.75000000       0.25000000       0.25000000 </v>
    <v>       0.50000000       0.50000000       0.50000000 </v>
    <v>       0.25000000       0.75000000       0.25000000 </v>
    <v>       0.00000000       0.00000000       0.50000000 </v>
    <v>       0.25000000       0.25000000       0.75000000 </v>
    <v>       0.00000000       0.50000000       0.00000000 </v>
   </varray>
  </structure>
  <varray name="forces" >
   <v>       0.00000000      -0.00000000       0.00000000 </v>
   <v>      -0.00000000      -0.00000000      -0.00000000 </v>
   <v>       0.00000000      -0.00000000       0.00000000 </v>
   <v>       0.00000000       0.00000000       0.00000000 </v>
   <v>       0.00000000       0.00000000       0.00000000 </v>
   <v>      -0.00000000       0.00000000      -0.00000000 </v>
   <v>       0.00000000      -0.00000000       0.00000000 </v>
   <v>      -0.00000000       0.00000000      -0.00000000 </v>
  </varray>
  <varray name="stress" >
   <v>      27.84762395      -0.00000000      -0.00000000 </v>
   <v>      -0.00000000      27.84762395      -0.00000000 </v>
   <v>       0.00000000      -0.00000000      27.84762395 </v>
  </varray>
  <energy>
   <i name="e_fr_energy">    -20.93062213 </i>
   <i name="e_wo_entrp">    -20.88110188 </i>
   <i name="e_0_energy">     -0.09904050 </i>
  </energy>
  <time name="totalsc">    5.32    5.44</time>
  <eigenvalues>
   <array>
    <dimension dim="1">band</dimension>
    <dimension dim="2">kpoint</dimension>
    <dimension dim="3">spin</dimension>
    <field>eigene</field>
    <field>occ</field>
    <set>
     <set comment="spin 1">
      <set comment="kpoint 1">
       <r>   -8.7698    1.0000 </r>
       <r>   -5.4293    1.0000 </r>
       <r>   -5.4293    1.0000 </r>
       <r>   -5.4293    1.0000 </r>
       <r>   -4.1835    1.0000 </r>
       <r>   -4.1835    1.0000 </r>
       <r>   -4.1835    1.0000 </r>
       <r>   -0.1163    1.0000 </r>
       <r>   -0.1163    1.0000 </r>
       <r>   -0.1163    1.0000 </r>
       <r>    0.3122    0.9984 </r>
       <r>    0.3122    0.9984 </r>
       <r>    0.3122    0.9984 </r>
       <r>    2.4297    0.0000 </r>
       <r>    3.4640    0.0000 </r>
       <r>    3.4640    0.0000 </r>
       <r>    3.6586    0.0000 </r>
       <r>    3.6586    0.0000 </r>
       <r>    3.6586    0.0000 </r>
       <r>    4.2507    0.0000 </r>
      </set>
      <set comment="kpoint 2">
       <r>   -8.5396    1.0000 </r>
       <r>   -6.5110    1.0000 </r>
       <r>   -5.3374    1.0000 </r>
       <r>   -5.3374    1.0000 </r>
       <r>   -4.1762    1.0000 </r>
       <r>   -4.1762    1.0000 </r>
       <r>   -2.8337    1.0000 </r>
       <r>   -0.7186    1.0000 </r>
       <r>   -0.7186    1.0000 </r>
       <r>    0.1092    1.0000 </r>
       <r>    0.1092    1.0000 </r>
       <r>    0.1826    0.9999 </r>
       <r>    0.5609    0.8847 </r>
       <r>    1.1965    0.0005 </r>
       <r>    2.6272    0.0000 </r>
       <r>    2.7873    0.0000 </r>
       <r>    3.7714    0.0000 </r>
       <r>    4.4211    0.0000 </r>
       <r>    4.4211    0.0000 </r>
       <r>    4.7267    0.0000 </r>
      </set>
      <set comment="kpoint 3">
       <r>   -8.0817    1.0000 </r>
       <r>   -7.4018    1.0000 </r>
       <r>   -5.2304    1.0000 </r>
       <r>   -5.2304    1.0000 </r>
       <r>   -4.1850    1.0000 </r>
       <r>   -4.1850    1.0000 </r>
       <r>   -1.4474    1.0000 </r>
       <r>   -1.0610    1.0000 </r>
       <r>   -1.0610    1.0000 </r>
       <r>   -0.2360    1.0000 </r>
       <r>   -0.2360    1.0000 </r>
       <r>   -0.0977    1.0000 </r>
       <r>    0.7872    0.3441 </r>
       <r>    1.0495    0.0120 </r>
       <r>    1.6898    0.0000 </r>
       <r>    1.7560    0.0000 </r>
       <r>    4.0933    0.0000 </r>
       <r>    4.6315    0.0000 </r>
       <r>    5.5546    0.0000 </r>
       <r>    5.9863    0.0000 </r>
      </set>
      <set comment="kpoint 4">
       <r>   -8.3130    1.0000 </r>
       <r>   -6.3446    1.0000 </r>
       <r>   -6.3446    1.0000 </r>
       <r>   -5.4362    1.0000 </r>
       <r>   -4.0923    1.0000 </r>
       <r>   -3.0607    1.0000 </r>
       <r>   -3.0607    1.0000 </r>
       <r>   -1.1941    1.0000 </r>
       <r>   -0.3798    1.0000 </r>
       <r>   -0.3798    1.0000 </r>
       <r>    0.1161    1.0000 </r>
       <r>    0.4910    0.9548 </r>
       <r>    0.4910    0.9548 </r>
       <r>    0.7376    0.4797 </r>
       <r>    1.8692    0.0000 </r>
       <r>    3.1768    0.0000 </r>
       <r>    4.0979    0.0000 </r>
       <r>    4.6404    0.0000 </r>
       <r>    4.6404    0.0000 </r>
       <r>    5.2810    0.0000 </r>
      </set>
      <set comment="kpoint 5">
       <r>   -7.8637    1.0000 </r>
       <r>   -7.2011    1.0000 </r>
       <r>   -6.0454    1.0000 </r>
       <r>   -5.6971    1.0000 </r>
       <r>   -3.8451    1.0000 </r>
       <r>   -3.4529    1.0000 </r>
       <r>   -1.9959    1.0000 </r>
       <r>   -1.2241    1.0000 </r>
       <r>   -0.9608    1.0000 </r>
       <r>   -0.8942    1.0000 </r>
       <r>    0.2142    0.9999 </r>
       <r>    0.4906    0.9550 </r>
       <r>    0.7167    0.5387 </r>
       <r>    0.9800    0.0388 </r>
       <r>    1.2872    0.0000 </r>
       <r>    2.3646    0.0000 </r>
       <r>    5.0260    0.0000 </r>
       <r>    5.0614    0.0000 </r>
       <r>    5.5653    0.0000 </r>
       <r>    6.2032    0.0000 </r>
      </set>
      <set comment="kpoint 6">
       <r>   -7.4353    1.0000 </r>
       <r>   -6.8155    1.0000 </r>
       <r>   -6.8155    1.0000 </r>
       <r>   -6.2851    1.0000 </r>
       <r>   -3.3393    1.0000 </r>
       <r>   -2.6993    1.0000 </r>
       <r>   -2.6993    1.0000 </r>
       <r>   -1.8749    1.0000 </r>
       <r>   -0.9989    1.0000 </r>
       <r>   -0.4751    1.0000 </r>
       <r>   -0.4751    1.0000 </r>
       <r>    0.1736    1.0000 </r>
       <r>    1.5147    0.0000 </r>
       <r>    1.5813    0.0000 </r>
       <r>    1.5813    0.0000 </r>
       <r>    2.4481    0.0000 </r>
       <r>    4.8403    0.0000 </r>
       <r>    5.4952    0.0000 </r>
       <r>    5.8279    0.0000 </r>
       <r>    5.8279    0.0000 </r>
      </set>
      <set comment="kpoint 7">
       <r>   -8.0916    1.0000 </r>
       <r>   -6.2353    1.0000 </r>
       <r>   -6.2353    1.0000 </r>
       <r>   -6.2353    1.0000 </r>
       <r>   -3.4214    1.0000 </r>
       <r>   -3.4214    1.0000 </r>
       <r>   -3.4214    1.0000 </r>
       <r>   -0.9080    1.0000 </r>
       <r>   -0.4953    1.0000 </r>
       <r>   -0.4953    1.0000 </r>
       <r>   -0.4953    1.0000 </r>
       <r>    0.9608    0.0516 </r>
       <r>    0.9608    0.0516 </r>
       <r>    0.9608    0.0516 </r>
       <r>    2.6582    0.0000 </r>
       <r>    2.6582    0.0000 </r>
       <r>    4.3795    0.0000 </r>
       <r>    4.3795    0.0000 </r>
       <r>    4.3795    0.0000 </r>
       <r>    4.4505    0.0000 </r>
      </set>
      <set comment="kpoint 8">
       <r>   -7.6557    1.0000 </r>
       <r>   -7.0226    1.0000 </r>
       <r>   -6.1053    1.0000 </r>
       <r>   -6.1053    1.0000 </r>
       <r>   -3.7716    1.0000 </r>
       <r>   -3.7716    1.0000 </r>
       <r>   -2.7017    1.0000 </r>
       <r>   -1.8775    1.0000 </r>
       <r>   -0.4359    1.0000 </r>
       <r>   -0.4359    1.0000 </r>
       <r>    0.6607    0.6891 </r>
       <r>    1.0286    0.0175 </r>
       <r>    1.0286    0.0175 </r>
       <r>    1.3913    0.0000 </r>
       <r>    1.9432    0.0000 </r>
       <r>    1.9884    0.0000 </r>
       <r>    4.8780    0.0000 </r>
       <r>    4.9771    0.0000 </r>
       <r>    5.2561    0.0000 </r>
       <r>    5.2561    0.0000 </r>
      </set>
      <set comment="kpoint 9">
       <r>   -7.2544    1.0000 </r>
       <r>   -6.7016    1.0000 </r>
       <r>   -6.7016    1.0000 </r>
       <r>   -6.3388    1.0000 </r>
       <r>   -3.8048    1.0000 </r>
       <r>   -3.3968    1.0000 </r>
       <r>   -3.3968    1.0000 </r>
       <r>   -2.7434    1.0000 </r>
       <r>    0.0644    1.0000 </r>
       <r>    0.5197    0.9319 </r>
       <r>    0.5197    0.9319 </r>
       <r>    1.3160    0.0000 </r>
       <r>    1.6580    0.0000 </r>
       <r>    1.6950    0.0000 </r>
       <r>    1.6950    0.0000 </r>
       <r>    2.3633    0.0000 </r>
       <r>    4.7857    0.0000 </r>
       <r>    4.9842    0.0000 </r>
       <r>    5.3528    0.0000 </r>
       <r>    5.3528    0.0000 </r>
      </set>
      <set comment="kpoint 10">
       <r>   -6.9295    1.0000 </r>
       <r>   -6.5658    1.0000 </r>
       <r>   -6.5658    1.0000 </r>
       <r>   -6.5658    1.0000 </r>
       <r>   -3.9071    1.0000 </r>
       <r>   -3.9071    1.0000 </r>
       <r>   -3.9071    1.0000 </r>
       <r>   -3.5004    1.0000 </r>
       <r>    1.3762    0.0000 </r>
       <r>    1.3762    0.0000 </r>
       <r>    1.3762    0.0000 </r>
       <r>    1.9041    0.0000 </r>
       <r>    1.9041    0.0000 </r>
       <r>    1.9041    0.0000 </r>
       <r>    2.1705    0.0000 </r>
       <r>    2.1705    0.0000 </r>
       <r>    4.0422    0.0000 </r>
       <r>    4.6695    0.0000 </r>
       <r>    4.6695    0.0000 </r>
       <r>    4.6695    0.0000 </r>
      </set>
     </set>
    </set>
   </array>
  </eigenvalues>
  <separator name="orbital magnetization" >
   <v name="MAGDIPOLOUT">      0.00000000      0.00000000      0.00000000</v>
  </separator>
  <dos>
   <i name="efermi">      0.73044545 </i>
   <total>
    <array>
     <dimension dim="1">gridpoints</dimension>
     <dimension dim="2">spin</dimension>
     <field>energy</field>
     <field>total</field>
     <field>integrated</field>
     <set>
      <set comment="spin 1">
       <r>   -10.7698     0.0000     0.0000 </r>
       <r>   -10.7066     0.0000     0.0000 </r>
       <r>   -10.6433     0.0000     0.0000 </r>
       <r>   -10.5801     0.0000     0.0000 </r>
       <r>   -10.5169     0.0000     0.0000 </r>
       <r>   -10.4536     0.0000     0.0000 </r>
       <r>   -10.3904     0.0000     0.0000 </r>
       <r>   -10.3271     0.0000     0.0000 </r>
       <r>   -10.2639     0.0000     0.0000 </r>
       <r>   -10.2006     0.0000     0.0000 </r>
       <r>   -10.1374     0.0000     0.0000 </r>
       <r>   -10.0742     0.0000     0.0000 </r>
       <r>   -10.0109     0.0000     0.0000 </r>
       <r>    -9.9477     0.0000     0.0000 </r>
       <r>    -9.8844     0.0000     0.0000 </r>
       <r>    -9.8212     0.0000     0.0000 </r>
       <r>    -9.7579     0.0000     0.0000 </r>
       <r>    -9.6947     0.0000     0.0000 </r>
       <r>    -9.6315     0.0000     0.0000 </r>
       <r>    -9.5682     0.0000     0.0000 </r>
       <r>    -9.5050     0.0000     0.0000 </r>
       <r>    -9.4417     0.0000     0.0000 </r>
       <r>    -9.3785     0.0000     0.0000 </r>
       <r>    -9.3152     0.0001     0.0000 </r>
       <r>    -9.2520     0.0003     0.0000 </r>
       <r>    -9.1887     0.0014     0.0001 </r>
       <r>    -9.1255     0.0052     0.0004 </r>
       <r>    -9.0623     0.0160     0.0015 </r>
       <r>    -8.9990     0.0406     0.0040 </r>
       <r>    -8.9358     0.0863     0.0095 </r>
       <r>    -8.8725     0.1568     0.0194 </r>
       <r>    -8.8093     0.2504     0.0352 </r>
       <r>    -8.7460     0.3643     0.0583 </r>
       <r>    -8.6828     0.4973     0.0897 </r>
       <r>    -8.6196     0.6420     0.1303 </r>
       <r>    -8.5563     0.7774     0.1795 </r>
       <r>    -8.4931     0.8792     0.2351 </r>
       <r>    -8.4298     0.9419     0.2947 </r>
       <r>    -8.3666     0.9818     0.3568 </r>
       <r>    -8.3033     1.0203     0.4213 </r>
       <r>    -8.2401     1.0730     0.4891 </r>
       <r>    -8.1769     1.1513     0.5620 </r>
       <r>    -8.1136     1.2595     0.6416 </r>
       <r>    -8.0504     1.3917     0.7296 </r>
       <r>    -7.9871     1.5335     0.8266 </r>
       <r>    -7.9239     1.6585     0.9315 </r>
       <r>    -7.8606     1.7243     1.0406 </r>
       <r>    -7.7974     1.6946     1.1477 </r>
       <r>    -7.7341     1.5807     1.2477 </r>
       <r>    -7.6709     1.4506     1.3394 </r>
       <r>    -7.6077     1.3908     1.4274 </r>
       <r>    -7.5444     1.4610     1.5198 </r>
       <r>    -7.4812     1.6686     1.6253 </r>
       <r>    -7.4179     1.9671     1.7497 </r>
       <r>    -7.3547     2.2792     1.8939 </r>
       <r>    -7.2914     2.5226     2.0534 </r>
       <r>    -7.2282     2.6277     2.2196 </r>
       <r>    -7.1650     2.5622     2.3816 </r>
       <r>    -7.1017     2.3679     2.5314 </r>
       <r>    -7.0385     2.1638     2.6682 </r>
       <r>    -6.9752     2.0841     2.8000 </r>
       <r>    -6.9120     2.1959     2.9389 </r>
       <r>    -6.8487     2.4589     3.0944 </r>
       <r>    -6.7855     2.7514     3.2684 </r>
       <r>    -6.7223     2.9471     3.4548 </r>
       <r>    -6.6590     2.9970     3.6443 </r>
       <r>    -6.5958     2.9598     3.8315 </r>
       <r>    -6.5325     2.9599     4.0187 </r>
       <r>    -6.4693     3.1040     4.2150 </r>
       <r>    -6.4060     3.4041     4.4303 </r>
       <r>    -6.3428     3.7580     4.6680 </r>
       <r>    -6.2796     4.0190     4.9222 </r>
       <r>    -6.2163     4.0972     5.1813 </r>
       <r>    -6.1531     3.9832     5.4332 </r>
       <r>    -6.0898     3.6827     5.6661 </r>
       <r>    -6.0266     3.1895     5.8678 </r>
       <r>    -5.9633     2.5562     6.0295 </r>
       <r>    -5.9001     1.9451     6.1525 </r>
       <r>    -5.8368     1.5451     6.2502 </r>
       <r>    -5.7736     1.4273     6.3405 </r>
       <r>    -5.7104     1.5061     6.4357 </r>
       <r>    -5.6471     1.6541     6.5404 </r>
       <r>    -5.5839     1.8376     6.6566 </r>
       <r>    -5.5206     2.1184     6.7905 </r>
       <r>    -5.4574     2.5263     6.9503 </r>
       <r>    -5.3941     2.9577     7.1374 </r>
       <r>    -5.3309     3.2141     7.3406 </r>
       <r>    -5.2677     3.1338     7.5388 </r>
       <r>    -5.2044     2.6951     7.7093 </r>
       <r>    -5.1412     2.0222     7.8372 </r>
       <r>    -5.0779     1.3108     7.9201 </r>
       <r>    -5.0147     0.7269     7.9660 </r>
       <r>    -4.9514     0.3416     7.9877 </r>
       <r>    -4.8882     0.1350     7.9962 </r>
       <r>    -4.8250     0.0446     7.9990 </r>
       <r>    -4.7617     0.0126     7.9998 </r>
       <r>    -4.6985     0.0047     8.0001 </r>
       <r>    -4.6352     0.0102     8.0007 </r>
       <r>    -4.5720     0.0398     8.0033 </r>
       <r>    -4.5087     0.1351     8.0118 </r>
       <r>    -4.4455     0.3779     8.0357 </r>
       <r>    -4.3822     0.8721     8.0909 </r>
       <r>    -4.3190     1.6631     8.1960 </r>
       <r>    -4.2558     2.6307     8.3624 </r>
       <r>    -4.1925     3.4801     8.5825 </r>
       <r>    -4.1293     3.9218     8.8305 </r>
       <r>    -4.0660     3.9195     9.0784 </r>
       <r>    -4.0028     3.7339     9.3146 </r>
       <r>    -3.9395     3.6735     9.5469 </r>
       <r>    -3.8763     3.7972     9.7870 </r>
       <r>    -3.8131     3.8840    10.0327 </r>
       <r>    -3.7498     3.7004    10.2667 </r>
       <r>    -3.6866     3.2796    10.4741 </r>
       <r>    -3.6233     2.9268    10.6592 </r>
       <r>    -3.5601     2.9440    10.8454 </r>
       <r>    -3.4968     3.3383    11.0565 </r>
       <r>    -3.4336     3.7853    11.2959 </r>
       <r>    -3.3704     3.8899    11.5419 </r>
       <r>    -3.3071     3.5083    11.7638 </r>
       <r>    -3.2439     2.8402    11.9434 </r>
       <r>    -3.1806     2.2263    12.0842 </r>
       <r>    -3.1174     1.8731    12.2027 </r>
       <r>    -3.0541     1.7681    12.3145 </r>
       <r>    -2.9909     1.8135    12.4292 </r>
       <r>    -2.9277     1.9785    12.5543 </r>
       <r>    -2.8644     2.2889    12.6991 </r>
       <r>    -2.8012     2.6909    12.8693 </r>
       <r>    -2.7379     2.9847    13.0580 </r>
       <r>    -2.6747     2.9380    13.2438 </r>
       <r>    -2.6114     2.4783    13.4006 </r>
       <r>    -2.5482     1.7605    13.5119 </r>
       <r>    -2.4849     1.0450    13.5780 </r>
       <r>    -2.4217     0.5212    13.6110 </r>
       <r>    -2.3585     0.2384    13.6260 </r>
       <r>    -2.2952     0.1631    13.6363 </r>
       <r>    -2.2320     0.2641    13.6531 </r>
       <r>    -2.1687     0.5433    13.6874 </r>
       <r>    -2.1055     0.9956    13.7504 </r>
       <r>    -2.0422     1.5468    13.8482 </r>
       <r>    -1.9790     2.0344    13.9769 </r>
       <r>    -1.9158     2.2725    14.1206 </r>
       <r>    -1.8525     2.1617    14.2573 </r>
       <r>    -1.7893     1.7591    14.3685 </r>
       <r>    -1.7260     1.2477    14.4475 </r>
       <r>    -1.6628     0.8301    14.5000 </r>
       <r>    -1.5995     0.6295    14.5398 </r>
       <r>    -1.5363     0.6594    14.5815 </r>
       <r>    -1.4731     0.8679    14.6364 </r>
       <r>    -1.4098     1.2067    14.7127 </r>
       <r>    -1.3466     1.6640    14.8179 </r>
       <r>    -1.2833     2.2381    14.9595 </r>
       <r>    -1.2201     2.8946    15.1425 </r>
       <r>    -1.1568     3.5676    15.3682 </r>
       <r>    -1.0936     4.1834    15.6327 </r>
       <r>    -1.0303     4.6533    15.9270 </r>
       <r>    -0.9671     4.8602    16.2344 </r>
       <r>    -0.9039     4.7151    16.5326 </r>
       <r>    -0.8406     4.2552    16.8017 </r>
       <r>    -0.7774     3.6667    17.0336 </r>
       <r>    -0.7141     3.2010    17.2360 </r>
       <r>    -0.6509     3.0669    17.4300 </r>
       <r>    -0.5876     3.3503    17.6419 </r>
       <r>    -0.5244     3.9502    17.8917 </r>
       <r>    -0.4612     4.5798    18.1814 </r>
       <r>    -0.3979     4.9157    18.4922 </r>
       <r>    -0.3347     4.8173    18.7969 </r>
       <r>    -0.2714     4.4040    19.0754 </r>
       <r>    -0.2082     3.9268    19.3238 </r>
       <r>    -0.1449     3.6007    19.5515 </r>
       <r>    -0.0817     3.5541    19.7763 </r>
       <r>    -0.0185     3.8434    20.0193 </r>
       <r>     0.0448     4.4141    20.2985 </r>
       <r>     0.1080     5.0468    20.6177 </r>
       <r>     0.1713     5.4367    20.9615 </r>
       <r>     0.2345     5.4247    21.3046 </r>
       <r>     0.2978     5.1622    21.6311 </r>
       <r>     0.3610     4.9998    21.9473 </r>
       <r>     0.4242     5.1691    22.2742 </r>
       <r>     0.4875     5.5729    22.6266 </r>
       <r>     0.5507     5.8962    22.9995 </r>
       <r>     0.6140     5.9002    23.3727 </r>
       <r>     0.6772     5.5837    23.7258 </r>
       <r>     0.7405     5.1148    24.0493 </r>
       <r>     0.8037     4.6988    24.3464 </r>
       <r>     0.8670     4.4914    24.6305 </r>
       <r>     0.9302     4.5189    24.9163 </r>
       <r>     0.9934     4.6388    25.2097 </r>
       <r>     1.0567     4.6520    25.5039 </r>
       <r>     1.1199     4.5009    25.7885 </r>
       <r>     1.1832     4.3159    26.0615 </r>
       <r>     1.2464     4.2435    26.3298 </r>
       <r>     1.3097     4.2831    26.6007 </r>
       <r>     1.3729     4.3358    26.8749 </r>
       <r>     1.4361     4.3698    27.1513 </r>
       <r>     1.4994     4.4665    27.4338 </r>
       <r>     1.5626     4.6930    27.7306 </r>
       <r>     1.6259     4.9733    28.0451 </r>
       <r>     1.6891     5.1244    28.3692 </r>
       <r>     1.7524     5.0159    28.6864 </r>
       <r>     1.8156     4.6648    28.9814 </r>
       <r>     1.8788     4.1727    29.2453 </r>
       <r>     1.9421     3.6114    29.4737 </r>
       <r>     2.0053     3.0100    29.6641 </r>
       <r>     2.0686     2.4354    29.8181 </r>
       <r>     2.1318     2.0277    29.9463 </r>
       <r>     2.1951     1.9258    30.0681 </r>
       <r>     2.2583     2.1529    30.2043 </r>
       <r>     2.3216     2.5625    30.3664 </r>
       <r>     2.3848     2.9057    30.5501 </r>
       <r>     2.4480     2.9894    30.7392 </r>
       <r>     2.5113     2.8011    30.9163 </r>
       <r>     2.5745     2.4783    31.0731 </r>
       <r>     2.6378     2.1592    31.2096 </r>
       <r>     2.7010     1.8777    31.3284 </r>
       <r>     2.7643     1.5902    31.4289 </r>
       <r>     2.8275     1.2656    31.5090 </r>
       <r>     2.8907     0.9354    31.5681 </r>
       <r>     2.9540     0.6752    31.6109 </r>
       <r>     3.0172     0.5478    31.6455 </r>
       <r>     3.0805     0.5550    31.6806 </r>
       <r>     3.1437     0.6320    31.7206 </r>
       <r>     3.2070     0.6935    31.7644 </r>
       <r>     3.2702     0.6979    31.8086 </r>
       <r>     3.3334     0.6714    31.8510 </r>
       <r>     3.3967     0.6716    31.8935 </r>
       <r>     3.4599     0.7363    31.9401 </r>
       <r>     3.5232     0.8653    31.9948 </r>
       <r>     3.5864     1.0317    32.0600 </r>
       <r>     3.6497     1.1893    32.1353 </r>
       <r>     3.7129     1.2809    32.2163 </r>
       <r>     3.7761     1.2733    32.2968 </r>
       <r>     3.8394     1.2021    32.3728 </r>
       <r>     3.9026     1.1677    32.4467 </r>
       <r>     3.9659     1.2594    32.5263 </r>
       <r>     4.0291     1.4694    32.6192 </r>
       <r>     4.0924     1.6962    32.7265 </r>
       <r>     4.1556     1.8516    32.8436 </r>
       <r>     4.2189     1.9595    32.9675 </r>
       <r>     4.2821     2.1264    33.1020 </r>
       <r>     4.3453     2.4168    33.2549 </r>
       <r>     4.4086     2.7924    33.4315 </r>
       <r>     4.4718     3.1862    33.6330 </r>
       <r>     4.5351     3.5871    33.8598 </r>
       <r>     4.5983     4.0082    34.1133 </r>
       <r>     4.6616     4.4019    34.3917 </r>
       <r>     4.7248     4.6796    34.6877 </r>
       <r>     4.7880     4.8230    34.9927 </r>
       <r>     4.8513     4.9188    35.3038 </r>
       <r>     4.9145     5.0481    35.6230 </r>
       <r>     4.9778     5.1687    35.9499 </r>
       <r>     5.0410     5.1497    36.2756 </r>
       <r>     5.1043     4.9325    36.5876 </r>
       <r>     5.1675     4.6185    36.8797 </r>
       <r>     5.2307     4.3652    37.1557 </r>
       <r>     5.2940     4.2256    37.4230 </r>
       <r>     5.3572     4.1339    37.6844 </r>
       <r>     5.4205     4.0137    37.9383 </r>
       <r>     5.4837     3.8313    38.1806 </r>
       <r>     5.5470     3.5597    38.4057 </r>
       <r>     5.6102     3.1796    38.6068 </r>
       <r>     5.6735     2.7409    38.7801 </r>
       <r>     5.7367     2.3609    38.9294 </r>
       <r>     5.7999     2.1193    39.0635 </r>
       <r>     5.8632     1.9853    39.1890 </r>
       <r>     5.9264     1.8754    39.3076 </r>
       <r>     5.9897     1.7559    39.4187 </r>
       <r>     6.0529     1.6613    39.5237 </r>
       <r>     6.1162     1.6185    39.6261 </r>
       <r>     6.1794     1.5812    39.7261 </r>
       <r>     6.2426     1.4548    39.8181 </r>
       <r>     6.3059     1.1883    39.8933 </r>
       <r>     6.3691     0.8299    39.9457 </r>
       <r>     6.4324     0.4857    39.9765 </r>
       <r>     6.4956     0.2358    39.9914 </r>
       <r>     6.5589     0.0945    39.9973 </r>
       <r>     6.6221     0.0312    39.9993 </r>
       <r>     6.6853     0.0085    39.9999 </r>
       <r>     6.7486     0.0019    40.0000 </r>
       <r>     6.8118     0.0003    40.0000 </r>
       <r>     6.8751     0.0001    40.0000 </r>
       <r>     6.9383     0.0000    40.0000 </r>
       <r>     7.0016     0.0000    40.0000 </r>
       <r>     7.0648     0.0000    40.0000 </r>
       <r>     7.1280     0.0000    40.0000 </r>
       <r>     7.1913     0.0000    40.0000 </r>
       <r>     7.2545     0.0000    40.0000 </r>
       <r>     7.3178     0.0000    40.0000 </r>
       <r>     7.3810     0.0000    40.0000 </r>
       <r>     7.4443     0.0000    40.0000 </r>
       <r>     7.5075     0.0000    40.0000 </r>
       <r>     7.5708     0.0000    40.0000 </r>
       <r>     7.6340     0.0000    40.0000 </r>
       <r>     7.6972     0.0000    40.0000 </r>
       <r>     7.7605     0.0000    40.0000 </r>
       <r>     7.8237     0.0000    40.0000 </r>
       <r>     7.8870     0.0000    40.0000 </r>
       <r>     7.9502     0.0000    40.0000 </r>
       <r>     8.0135     0.0000    40.0000 </r>
       <r>     8.0767     0.0000    40.0000 </r>
       <r>     8.1399     0.0000    40.0000 </r>
       <r>     8.2032     0.0000    40.0000 </r>
      </set>
     </set>
    </array>
   </total>
  </dos>
 </calculation>
 <structure name="finalpos" >
  <crystal>
   <varray name="basis" >
    <v>       5.76286300       0.00000000       0.00000000 </v>
    <v>       0.00000000       5.76286300       0.00000000 </v>
    <v>       0.00000000       0.00000000       5.76286300 </v>
   </varray>
   <i name="volume">    191.38808007 </i>
   <varray name="rec_basis" >
    <v>       0.17352486       0.00000000       0.00000000 </v>
    <v>       0.00000000       0.17352486       0.00000000 </v>
    <v>       0.00000000       0.00000000       0.17352486 </v>
   </varray>
  </crystal>
  <varray name="positions" >
   <v>       0.75000000       0.75000000       0.75000000 </v>
   <v>       0.50000000       0.00000000       0.00000000 </v>
   <v>       0.75000000       0.25000000       0.25000000 </v>
   <v>       0.50000000       0.50000000       0.50000000 </v>
   <v>       0.25000000       0.75000000       0.25000000 </v>
   <v>       0.00000000       0.00000000       0.50000000 </v>
   <v>       0.25000000       0.25000000       0.75000000 </v>
   <v>       0.00000000       0.50000000       0.00000000 </v>
  </varray>
 </structure>
</modeling>
