 vasp.5.3.3 18Dez12 (build Dec 13 2014 13:36:02) complex                        
  
 executed on             LinuxIFC date 2018.11.28  11:33:05
 running on   20 total cores
 distrk:  each k-point on   20 cores,    1 groups
 distr:  one band on NCORES_PER_BAND=   1 cores,   20 groups


--------------------------------------------------------------------------------------------------------


 INCAR:
 POTCAR:   PAW_PBE Cu 05Jan2001                   

 ----------------------------------------------------------------------------- 
|                                                                             |
|           W    W    AA    RRRRR   N    N  II  N    N   GGGG   !!!           |
|           W    W   A  A   R    R  NN   N  II  NN   N  G    G  !!!           |
|           W    W  A    A  R    R  N N  N  II  N N  N  G       !!!           |
|           W WW W  AAAAAA  RRRRR   N  N N  II  N  N N  G  GGG   !            |
|           WW  WW  A    A  R   R   N   NN  II  N   NN  G    G                |
|           W    W  A    A  R    R  N    N  II  N    N   GGGG   !!!           |
|                                                                             |
|      For optimal performance we recommend that you set                      |
|        NPAR = 4 - approx SQRT( number of cores)                             |
|      (number of cores/NPAR must be integer)                                 |
|      This setting will greatly improve the performance of VASP for DFT.     |
|      The default NPAR=number of cores might be grossly inefficient          |
|      on modern multi-core architectures or massively parallel machines.     |
|      Do your own testing.                                                   |
|      Unfortunately you need to use the default for hybrid, GW and RPA       |
|      calculations.                                                          |
|                                                                             |
 ----------------------------------------------------------------------------- 

 POTCAR:   PAW_PBE Cu 05Jan2001                   
   VRHFIN =Cu: d10 p1                                                           
   LEXCH  = PE                                                                  
   EATOM  =  1390.9800 eV,  102.2341 Ry                                         
                                                                                
   TITEL  = PAW_PBE Cu 05Jan2001                                                
   LULTRA =        F    use ultrasoft PP ?                                      
   IUNSCR =        1    unscreen: 0-lin 1-nonlin 2-no                           
   RPACOR =    2.000    partial core radius                                     
   POMASS =   63.546; ZVAL   =   11.000    mass and valenz                      
   RCORE  =    2.300    outmost cutoff radius                                   
   RWIGS  =    2.480; RWIGS  =    1.312    wigner-seitz radius (au A)           
   ENMAX  =  273.214; ENMIN  =  204.910 eV                                      
   RCLOC  =    1.712    cutoff for local pot                                    
   LCOR   =        T    correct aug charges                                     
   LPAW   =        T    paw PP                                                  
   EAUG   =  516.456                                                            
   DEXC   =    -.008                                                            
   RMAX   =    2.789    core radius for proj-oper                               
   RAUG   =    1.300    factor for augmentation sphere                          
   RDEP   =    2.302    radius for radial grids                                 
   QCUT   =   -4.481; QGAM   =    8.962    optimization parameters              
                                                                                
   Description                                                                  
     l     E      TYP  RCUT    TYP  RCUT                                        
     2   .000     23  2.300                                                     
     2   .000     23  2.300                                                     
     0   .000     23  2.300                                                     
     0   .000     23  2.300                                                     
     1  -.200     23  2.300                                                     
     1   .000     23  2.300                                                     
     3   .000      7   .000                                                     
  local pseudopotential read in
  partial core-charges read in
  atomic valenz-charges read in
  non local Contribution for L=           2  read in
    real space projection operators read in
  non local Contribution for L=           2  read in
    real space projection operators read in
  non local Contribution for L=           0  read in
    real space projection operators read in
  non local Contribution for L=           0  read in
    real space projection operators read in
  non local Contribution for L=           1  read in
    real space projection operators read in
  non local Contribution for L=           1  read in
    real space projection operators read in
    PAW grid and wavefunctions read in
 
   number of l-projection  operators is LMAX  =           6
   number of lm-projection operators is LMMAX =          18
 

 ----------------------------------------------------------------------------- 
|                                                                             |
|  ADVICE TO THIS USER RUNNING 'VASP/VAMP'   (HEAR YOUR MASTER'S VOICE ...):  |
|                                                                             |
|      You have a (more or less) 'small supercell' and for smaller cells      |
|      it is recommended  to use the reciprocal-space projection scheme!      |
|      The real space optimization is not  efficient for small cells and it   |
|      is also less accurate ...                                              |
|      Therefore set LREAL=.FALSE. in the  INCAR file                         |
|                                                                             |
 ----------------------------------------------------------------------------- 

 Optimization of the real space projectors (new method)

 maximal supplied QI-value         = 16.25
 optimisation between [QCUT,QGAM] = [ 11.38, 22.75] = [ 36.24,144.96] Ry 
 Optimized for a Real-space Cutoff    1.52 Angstroem

   l    n(q)    QCUT    max X(q) W(low)/X(q) W(high)/X(q)  e(spline) 
   2      9    11.376     4.977    0.18E-04    0.11E-04    0.50E-07
   2      9    11.376    13.467    0.17E-03    0.72E-04    0.21E-06
   0     10    11.376    13.303    0.19E-04    0.22E-05    0.11E-07
   0     10    11.376    44.613    0.60E-04    0.41E-04    0.25E-06
   1     10    11.376     5.276    0.11E-04    0.43E-05    0.26E-07
   1     10    11.376     7.322    0.51E-04    0.42E-04    0.12E-06
 PAW_PBE Cu 05Jan2001                   :
 energy of atom  1       EATOM=-1390.9800
 kinetic energy error for atom=    0.0032 (will be added to EATOM!!)
 
 
 POSCAR: MP POSCAR:                              
  positions in direct lattice
  No initial velocities read in
 exchange correlation table for  LEXCH =        8
   RHO(1)=    0.500       N(1)  =     2000
   RHO(2)=  100.500       N(2)  =     4000
 


--------------------------------------------------------------------------------------------------------


 ion  position               nearest neighbor table
   1  0.000  0.000  0.000-
 
  LATTYP: Found a face centered cubic cell.
 ALAT       =     3.6212620000
  
  Lattice vectors:
  
 A1 = (  -1.8106310000,  -1.8106310000,   0.0000000000)
 A2 = (  -1.8106310000,   0.0000000000,  -1.8106310000)
 A3 = (   0.0000000000,  -1.8106310000,  -1.8106310000)


Analysis of symmetry for initial positions (statically):
=====================================================================
 Subroutine PRICEL returns:
 Original cell was already a primitive cell.
 

 Routine SETGRP: Setting up the symmetry group for a 
 face centered cubic supercell.


 Subroutine GETGRP returns: Found 48 space group operations
 (whereof 48 operations were pure point group operations)
 out of a pool of 48 trial point group operations.


The static configuration has the point symmetry O_h .


Analysis of symmetry for dynamics (positions and initial velocities):
=====================================================================
 Subroutine PRICEL returns:
 Original cell was already a primitive cell.
 

 Routine SETGRP: Setting up the symmetry group for a 
 face centered cubic supercell.


 Subroutine GETGRP returns: Found 48 space group operations
 (whereof 48 operations were pure point group operations)
 out of a pool of 48 trial point group operations.


The dynamic configuration has the point symmetry O_h .


 irot  :   1
 --------------------------------------------------------------------
 isymop:   1   0   0
           0   1   0
           0   0   1

 gtrans:     0.0000000     0.0000000     0.0000000

 ptrans:     0.0000000     0.0000000     0.0000000
 rotmap:
 (   1->   1) 


 irot  :   2
 --------------------------------------------------------------------
 isymop:  -1   0   0
           0  -1   0
           0   0  -1

 gtrans:     0.0000000     0.0000000     0.0000000

 ptrans:     0.0000000     0.0000000     0.0000000
 rotmap:
 (   1->   1) 


 irot  :   3
 --------------------------------------------------------------------
 isymop:   0   0   1
           1   0   0
           0   1   0

 gtrans:     0.0000000     0.0000000     0.0000000

 ptrans:     0.0000000     0.0000000     0.0000000
 rotmap:
 (   1->   1) 


 irot  :   4
 --------------------------------------------------------------------
 isymop:   0   0  -1
          -1   0   0
           0  -1   0

 gtrans:     0.0000000     0.0000000     0.0000000

 ptrans:     0.0000000     0.0000000     0.0000000
 rotmap:
 (   1->   1) 


 irot  :   5
 --------------------------------------------------------------------
 isymop:   0   1   0
           0   0   1
           1   0   0

 gtrans:     0.0000000     0.0000000     0.0000000

 ptrans:     0.0000000     0.0000000     0.0000000
 rotmap:
 (   1->   1) 


 irot  :   6
 --------------------------------------------------------------------
 isymop:   0  -1   0
           0   0  -1
          -1   0   0

 gtrans:     0.0000000     0.0000000     0.0000000

 ptrans:     0.0000000     0.0000000     0.0000000
 rotmap:
 (   1->   1) 


 irot  :   7
 --------------------------------------------------------------------
 isymop:   1   1   1
           0   0  -1
          -1   0   0

 gtrans:     0.0000000     0.0000000     0.0000000

 ptrans:     0.0000000     0.0000000     0.0000000
 rotmap:
 (   1->   1) 


 irot  :   8
 --------------------------------------------------------------------
 isymop:  -1  -1  -1
           0   0   1
           1   0   0

 gtrans:     0.0000000     0.0000000     0.0000000

 ptrans:     0.0000000     0.0000000     0.0000000
 rotmap:
 (   1->   1) 


 irot  :   9
 --------------------------------------------------------------------
 isymop:   1   1   1
           0  -1   0
           0   0  -1

 gtrans:     0.0000000     0.0000000     0.0000000

 ptrans:     0.0000000     0.0000000     0.0000000
 rotmap:
 (   1->   1) 


 irot  :  10
 --------------------------------------------------------------------
 isymop:  -1  -1  -1
           0   1   0
           0   0   1

 gtrans:     0.0000000     0.0000000     0.0000000

 ptrans:     0.0000000     0.0000000     0.0000000
 rotmap:
 (   1->   1) 


 irot  :  11
 --------------------------------------------------------------------
 isymop:   1   1   1
          -1   0   0
           0  -1   0

 gtrans:     0.0000000     0.0000000     0.0000000

 ptrans:     0.0000000     0.0000000     0.0000000
 rotmap:
 (   1->   1) 


 irot  :  12
 --------------------------------------------------------------------
 isymop:  -1  -1  -1
           1   0   0
           0   1   0

 gtrans:     0.0000000     0.0000000     0.0000000

 ptrans:     0.0000000     0.0000000     0.0000000
 rotmap:
 (   1->   1) 


 irot  :  13
 --------------------------------------------------------------------
 isymop:   0   1   0
           1   0   0
          -1  -1  -1

 gtrans:     0.0000000     0.0000000     0.0000000

 ptrans:     0.0000000     0.0000000     0.0000000
 rotmap:
 (   1->   1) 


 irot  :  14
 --------------------------------------------------------------------
 isymop:   0  -1   0
          -1   0   0
           1   1   1

 gtrans:     0.0000000     0.0000000     0.0000000

 ptrans:     0.0000000     0.0000000     0.0000000
 rotmap:
 (   1->   1) 


 irot  :  15
 --------------------------------------------------------------------
 isymop:   1   0   0
           0   0   1
          -1  -1  -1

 gtrans:     0.0000000     0.0000000     0.0000000

 ptrans:     0.0000000     0.0000000     0.0000000
 rotmap:
 (   1->   1) 


 irot  :  16
 --------------------------------------------------------------------
 isymop:  -1   0   0
           0   0  -1
           1   1   1

 gtrans:     0.0000000     0.0000000     0.0000000

 ptrans:     0.0000000     0.0000000     0.0000000
 rotmap:
 (   1->   1) 


 irot  :  17
 --------------------------------------------------------------------
 isymop:   0   0   1
           0   1   0
          -1  -1  -1

 gtrans:     0.0000000     0.0000000     0.0000000

 ptrans:     0.0000000     0.0000000     0.0000000
 rotmap:
 (   1->   1) 


 irot  :  18
 --------------------------------------------------------------------
 isymop:   0   0  -1
           0  -1   0
           1   1   1

 gtrans:     0.0000000     0.0000000     0.0000000

 ptrans:     0.0000000     0.0000000     0.0000000
 rotmap:
 (   1->   1) 


 irot  :  19
 --------------------------------------------------------------------
 isymop:   0   0  -1
           1   1   1
           0  -1   0

 gtrans:     0.0000000     0.0000000     0.0000000

 ptrans:     0.0000000     0.0000000     0.0000000
 rotmap:
 (   1->   1) 


 irot  :  20
 --------------------------------------------------------------------
 isymop:   0   0   1
          -1  -1  -1
           0   1   0

 gtrans:     0.0000000     0.0000000     0.0000000

 ptrans:     0.0000000     0.0000000     0.0000000
 rotmap:
 (   1->   1) 


 irot  :  21
 --------------------------------------------------------------------
 isymop:   0  -1   0
           1   1   1
          -1   0   0

 gtrans:     0.0000000     0.0000000     0.0000000

 ptrans:     0.0000000     0.0000000     0.0000000
 rotmap:
 (   1->   1) 


 irot  :  22
 --------------------------------------------------------------------
 isymop:   0   1   0
          -1  -1  -1
           1   0   0

 gtrans:     0.0000000     0.0000000     0.0000000

 ptrans:     0.0000000     0.0000000     0.0000000
 rotmap:
 (   1->   1) 


 irot  :  23
 --------------------------------------------------------------------
 isymop:  -1   0   0
           1   1   1
           0   0  -1

 gtrans:     0.0000000     0.0000000     0.0000000

 ptrans:     0.0000000     0.0000000     0.0000000
 rotmap:
 (   1->   1) 


 irot  :  24
 --------------------------------------------------------------------
 isymop:   1   0   0
          -1  -1  -1
           0   0   1

 gtrans:     0.0000000     0.0000000     0.0000000

 ptrans:     0.0000000     0.0000000     0.0000000
 rotmap:
 (   1->   1) 


 irot  :  25
 --------------------------------------------------------------------
 isymop:  -1  -1  -1
           0   1   0
           1   0   0

 gtrans:     0.0000000     0.0000000     0.0000000

 ptrans:     0.0000000     0.0000000     0.0000000
 rotmap:
 (   1->   1) 


 irot  :  26
 --------------------------------------------------------------------
 isymop:   1   1   1
           0  -1   0
          -1   0   0

 gtrans:     0.0000000     0.0000000     0.0000000

 ptrans:     0.0000000     0.0000000     0.0000000
 rotmap:
 (   1->   1) 


 irot  :  27
 --------------------------------------------------------------------
 isymop:  -1  -1  -1
           1   0   0
           0   0   1

 gtrans:     0.0000000     0.0000000     0.0000000

 ptrans:     0.0000000     0.0000000     0.0000000
 rotmap:
 (   1->   1) 


 irot  :  28
 --------------------------------------------------------------------
 isymop:   1   1   1
          -1   0   0
           0   0  -1

 gtrans:     0.0000000     0.0000000     0.0000000

 ptrans:     0.0000000     0.0000000     0.0000000
 rotmap:
 (   1->   1) 


 irot  :  29
 --------------------------------------------------------------------
 isymop:  -1  -1  -1
           0   0   1
           0   1   0

 gtrans:     0.0000000     0.0000000     0.0000000

 ptrans:     0.0000000     0.0000000     0.0000000
 rotmap:
 (   1->   1) 


 irot  :  30
 --------------------------------------------------------------------
 isymop:   1   1   1
           0   0  -1
           0  -1   0

 gtrans:     0.0000000     0.0000000     0.0000000

 ptrans:     0.0000000     0.0000000     0.0000000
 rotmap:
 (   1->   1) 


 irot  :  31
 --------------------------------------------------------------------
 isymop:   0  -1   0
           0   0  -1
           1   1   1

 gtrans:     0.0000000     0.0000000     0.0000000

 ptrans:     0.0000000     0.0000000     0.0000000
 rotmap:
 (   1->   1) 


 irot  :  32
 --------------------------------------------------------------------
 isymop:   0   1   0
           0   0   1
          -1  -1  -1

 gtrans:     0.0000000     0.0000000     0.0000000

 ptrans:     0.0000000     0.0000000     0.0000000
 rotmap:
 (   1->   1) 


 irot  :  33
 --------------------------------------------------------------------
 isymop:  -1   0   0
           0  -1   0
           1   1   1

 gtrans:     0.0000000     0.0000000     0.0000000

 ptrans:     0.0000000     0.0000000     0.0000000
 rotmap:
 (   1->   1) 


 irot  :  34
 --------------------------------------------------------------------
 isymop:   1   0   0
           0   1   0
          -1  -1  -1

 gtrans:     0.0000000     0.0000000     0.0000000

 ptrans:     0.0000000     0.0000000     0.0000000
 rotmap:
 (   1->   1) 


 irot  :  35
 --------------------------------------------------------------------
 isymop:   0   0  -1
          -1   0   0
           1   1   1

 gtrans:     0.0000000     0.0000000     0.0000000

 ptrans:     0.0000000     0.0000000     0.0000000
 rotmap:
 (   1->   1) 


 irot  :  36
 --------------------------------------------------------------------
 isymop:   0   0   1
           1   0   0
          -1  -1  -1

 gtrans:     0.0000000     0.0000000     0.0000000

 ptrans:     0.0000000     0.0000000     0.0000000
 rotmap:
 (   1->   1) 


 irot  :  37
 --------------------------------------------------------------------
 isymop:   1   0   0
          -1  -1  -1
           0   1   0

 gtrans:     0.0000000     0.0000000     0.0000000

 ptrans:     0.0000000     0.0000000     0.0000000
 rotmap:
 (   1->   1) 


 irot  :  38
 --------------------------------------------------------------------
 isymop:  -1   0   0
           1   1   1
           0  -1   0

 gtrans:     0.0000000     0.0000000     0.0000000

 ptrans:     0.0000000     0.0000000     0.0000000
 rotmap:
 (   1->   1) 


 irot  :  39
 --------------------------------------------------------------------
 isymop:   0   0   1
          -1  -1  -1
           1   0   0

 gtrans:     0.0000000     0.0000000     0.0000000

 ptrans:     0.0000000     0.0000000     0.0000000
 rotmap:
 (   1->   1) 


 irot  :  40
 --------------------------------------------------------------------
 isymop:   0   0  -1
           1   1   1
          -1   0   0

 gtrans:     0.0000000     0.0000000     0.0000000

 ptrans:     0.0000000     0.0000000     0.0000000
 rotmap:
 (   1->   1) 


 irot  :  41
 --------------------------------------------------------------------
 isymop:   0   1   0
          -1  -1  -1
           0   0   1

 gtrans:     0.0000000     0.0000000     0.0000000

 ptrans:     0.0000000     0.0000000     0.0000000
 rotmap:
 (   1->   1) 


 irot  :  42
 --------------------------------------------------------------------
 isymop:   0  -1   0
           1   1   1
           0   0  -1

 gtrans:     0.0000000     0.0000000     0.0000000

 ptrans:     0.0000000     0.0000000     0.0000000
 rotmap:
 (   1->   1) 


 irot  :  43
 --------------------------------------------------------------------
 isymop:  -1   0   0
           0   0  -1
           0  -1   0

 gtrans:     0.0000000     0.0000000     0.0000000

 ptrans:     0.0000000     0.0000000     0.0000000
 rotmap:
 (   1->   1) 


 irot  :  44
 --------------------------------------------------------------------
 isymop:   1   0   0
           0   0   1
           0   1   0

 gtrans:     0.0000000     0.0000000     0.0000000

 ptrans:     0.0000000     0.0000000     0.0000000
 rotmap:
 (   1->   1) 


 irot  :  45
 --------------------------------------------------------------------
 isymop:   0  -1   0
          -1   0   0
           0   0  -1

 gtrans:     0.0000000     0.0000000     0.0000000

 ptrans:     0.0000000     0.0000000     0.0000000
 rotmap:
 (   1->   1) 


 irot  :  46
 --------------------------------------------------------------------
 isymop:   0   1   0
           1   0   0
           0   0   1

 gtrans:     0.0000000     0.0000000     0.0000000

 ptrans:     0.0000000     0.0000000     0.0000000
 rotmap:
 (   1->   1) 


 irot  :  47
 --------------------------------------------------------------------
 isymop:   0   0  -1
           0  -1   0
          -1   0   0

 gtrans:     0.0000000     0.0000000     0.0000000

 ptrans:     0.0000000     0.0000000     0.0000000
 rotmap:
 (   1->   1) 


 irot  :  48
 --------------------------------------------------------------------
 isymop:   0   0   1
           0   1   0
           1   0   0

 gtrans:     0.0000000     0.0000000     0.0000000

 ptrans:     0.0000000     0.0000000     0.0000000
 rotmap:
 (   1->   1) 
 
 
 KPOINTS: k-points : CUBIC - FCC                  
  interpolating k-points between supplied coordinates
  k-points in reciprocal lattice
Space group operators:
 irot       det(A)        alpha          n_x          n_y          n_z        tau_x        tau_y        tau_z
    1     1.000000     0.000000     1.000000     0.000000     0.000000     0.000000     0.000000     0.000000
    2    -1.000000     0.000000     1.000000     0.000000     0.000000     0.000000     0.000000     0.000000
    3     1.000000   120.000000     0.577350     0.577350     0.577350     0.000000     0.000000     0.000000
    4    -1.000000   120.000000     0.577350     0.577350     0.577350     0.000000     0.000000     0.000000
    5     1.000000   120.000000    -0.577350    -0.577350    -0.577350     0.000000     0.000000     0.000000
    6    -1.000000   120.000000    -0.577350    -0.577350    -0.577350     0.000000     0.000000     0.000000
    7     1.000000    90.000000     1.000000     0.000000     0.000000     0.000000     0.000000     0.000000
    8    -1.000000    90.000000     1.000000     0.000000     0.000000     0.000000     0.000000     0.000000
    9     1.000000   180.000000     0.707107     0.707107     0.000000     0.000000     0.000000     0.000000
   10    -1.000000   180.000000     0.707107     0.707107     0.000000     0.000000     0.000000     0.000000
   11     1.000000    90.000000     0.000000    -1.000000     0.000000     0.000000     0.000000     0.000000
   12    -1.000000    90.000000     0.000000    -1.000000     0.000000     0.000000     0.000000     0.000000
   13     1.000000   180.000000     1.000000     0.000000     0.000000     0.000000     0.000000     0.000000
   14    -1.000000   180.000000     1.000000     0.000000     0.000000     0.000000     0.000000     0.000000
   15     1.000000   120.000000    -0.577350    -0.577350     0.577350     0.000000     0.000000     0.000000
   16    -1.000000   120.000000    -0.577350    -0.577350     0.577350     0.000000     0.000000     0.000000
   17     1.000000   120.000000     0.577350    -0.577350     0.577350     0.000000     0.000000     0.000000
   18    -1.000000   120.000000     0.577350    -0.577350     0.577350     0.000000     0.000000     0.000000
   19     1.000000    90.000000    -1.000000     0.000000     0.000000     0.000000     0.000000     0.000000
   20    -1.000000    90.000000    -1.000000     0.000000     0.000000     0.000000     0.000000     0.000000
   21     1.000000    90.000000     0.000000     0.000000     1.000000     0.000000     0.000000     0.000000
   22    -1.000000    90.000000     0.000000     0.000000     1.000000     0.000000     0.000000     0.000000
   23     1.000000   180.000000     0.707107     0.000000     0.707107     0.000000     0.000000     0.000000
   24    -1.000000   180.000000     0.707107     0.000000     0.707107     0.000000     0.000000     0.000000
   25     1.000000   120.000000    -0.577350     0.577350    -0.577350     0.000000     0.000000     0.000000
   26    -1.000000   120.000000    -0.577350     0.577350    -0.577350     0.000000     0.000000     0.000000
   27     1.000000   120.000000    -0.577350     0.577350     0.577350     0.000000     0.000000     0.000000
   28    -1.000000   120.000000    -0.577350     0.577350     0.577350     0.000000     0.000000     0.000000
   29     1.000000   179.999999     0.000000     0.000000     1.000000     0.000000     0.000000     0.000000
   30    -1.000000   179.999999     0.000000     0.000000     1.000000     0.000000     0.000000     0.000000
   31     1.000000    90.000000     0.000000     1.000000     0.000000     0.000000     0.000000     0.000000
   32    -1.000000    90.000000     0.000000     1.000000     0.000000     0.000000     0.000000     0.000000
   33     1.000000   180.000000     0.000000     0.707107     0.707107     0.000000     0.000000     0.000000
   34    -1.000000   180.000000     0.000000     0.707107     0.707107     0.000000     0.000000     0.000000
   35     1.000000    90.000000     0.000000     0.000000    -1.000000     0.000000     0.000000     0.000000
   36    -1.000000    90.000000     0.000000     0.000000    -1.000000     0.000000     0.000000     0.000000
   37     1.000000   120.000000     0.577350     0.577350    -0.577350     0.000000     0.000000     0.000000
   38    -1.000000   120.000000     0.577350     0.577350    -0.577350     0.000000     0.000000     0.000000
   39     1.000000   180.000000     0.000000     1.000000     0.000000     0.000000     0.000000     0.000000
   40    -1.000000   180.000000     0.000000     1.000000     0.000000     0.000000     0.000000     0.000000
   41     1.000000   120.000000     0.577350    -0.577350    -0.577350     0.000000     0.000000     0.000000
   42    -1.000000   120.000000     0.577350    -0.577350    -0.577350     0.000000     0.000000     0.000000
   43     1.000000   180.000000     0.707107    -0.707107     0.000000     0.000000     0.000000     0.000000
   44    -1.000000   180.000000     0.707107    -0.707107     0.000000     0.000000     0.000000     0.000000
   45     1.000000   180.000000     0.000000    -0.707107     0.707107     0.000000     0.000000     0.000000
   46    -1.000000   180.000000     0.000000    -0.707107     0.707107     0.000000     0.000000     0.000000
   47     1.000000   180.000000     0.707107     0.000000    -0.707107     0.000000     0.000000     0.000000
   48    -1.000000   180.000000     0.707107     0.000000    -0.707107     0.000000     0.000000     0.000000


--------------------------------------------------------------------------------------------------------




 Dimension of arrays:
   k-points           NKPTS =    320   k-points in BZ     NKDIM =    320   number of bands    NBANDS=     80
   number of dos      NEDOS =   5000   number of ions     NIONS =      1
   non local maximal  LDIM  =      6   non local SUM 2l+1 LMDIM =     18
   total plane-waves  NPLWV =   8000
   max r-space proj   IRMAX =   9935   max aug-charges    IRDMAX=  23847
   dimension x,y,z NGX =    20 NGY =   20 NGZ =   20
   dimension x,y,z NGXF=    40 NGYF=   40 NGZF=   40
   support grid    NGXF=    40 NGYF=   40 NGZF=   40
   ions per type =               1
 NGX,Y,Z   is equivalent  to a cutoff of  12.98, 12.98, 12.98 a.u.
 NGXF,Y,Z  is equivalent  to a cutoff of  25.97, 25.97, 25.97 a.u.


 I would recommend the setting:
   dimension x,y,z NGX =    19 NGY =   19 NGZ =   19
 SYSTEM =  unknown system                          
 POSCAR =  MP POSCAR:                              

 Startparameter for this run:
   NWRITE =      2    write-flag & timer
   PREC   = accura    normal or accurate (medium, high low for compatibility)
   ISTART =      1    job   : 0-new  1-cont  2-samecut
   ICHARG =     11    charge: 1-file 2-atom 10-const
   ISPIN  =      1    spin polarized calculation?
   LNONCOLLINEAR =      F non collinear calculations
   LSORBIT =      F    spin-orbit coupling
   INIWAV =      1    electr: 0-lowe 1-rand  2-diag
   LASPH  =      F    aspherical Exc in radial PAW
   METAGGA=      F    non-selfconsistent MetaGGA calc.

 Electronic Relaxation 1
   ENCUT  =  500.0 eV  36.75 Ry    6.06 a.u.   4.67  4.67  4.67*2*pi/ulx,y,z
   ENINI  =  500.0     initial cutoff
   ENAUG  =  516.5 eV  augmentation charge cutoff
   NELM   =     60;   NELMIN=  2; NELMDL=  0     # of ELM steps 
   EDIFF  = 0.1E-05   stopping-criterion for ELM
   LREAL  =      T    real-space projection
   NLSPLINE    = F    spline interpolate recip. space projectors
   LCOMPAT=      F    compatible to vasp.4.4
   GGA_COMPAT  = T    GGA compatible to vasp.4.4-vasp.4.6
   LMAXPAW     = -100 max onsite density
   LMAXMIX     =    4 max onsite mixed and CHGCAR
   VOSKOWN=      0    Vosko Wilk Nusair interpolation
   ROPT   =   -0.00025
 Ionic relaxation
   EDIFFG = 0.1E-04   stopping-criterion for IOM
   NSW    =      0    number of steps for IOM
   NBLOCK =      1;   KBLOCK =      1    inner block; outer block 
   IBRION =     -1    ionic relax: 0-MD 1-quasi-New 2-CG
   NFREE  =      1    steps in history (QN), initial steepest desc. (CG)
   ISIF   =      3    stress and relaxation
   IWAVPR =     10    prediction:  0-non 1-charg 2-wave 3-comb
   ISYM   =      1    0-nonsym 1-usesym 2-fastsym
   LCORR  =      T    Harris-Foulkes like correction to forces

   POTIM  = 0.5000    time-step for ionic-motion
   TEIN   =    0.0    initial temperature
   TEBEG  =    0.0;   TEEND  =   0.0 temperature during run
   SMASS  =  -3.00    Nose mass-parameter (am)
   estimated Nose-frequenzy (Omega)   =  0.10E-29 period in steps =****** mass=  -0.150E-27a.u.
   SCALEE = 1.0000    scale energy and forces
   NPACO  =    256;   APACO  = 16.0  distance and # of slots for P.C.
   PSTRESS=    0.0 pullay stress

  Mass of Ions in am
   POMASS =  63.55
  Ionic Valenz
   ZVAL   =  11.00
  Atomic Wigner-Seitz radii
   RWIGS  =  -1.00
  virtual crystal weights 
   VCA    =   1.00
   NELECT =      11.0000    total number of electrons
   NUPDOWN=      -1.0000    fix difference up-down

 DOS related values:
   EMIN   = -20.00;   EMAX   = 20.00  energy-range for DOS
   EFERMI =   0.00
   ISMEAR =     1;   SIGMA  =   0.10  broadening in eV -4-tet -1-fermi 0-gaus

 Electronic relaxation 2 (details)
   IALGO  =     38    algorithm
   LDIAG  =      T    sub-space diagonalisation (order eigenvalues)
   LSUBROT=      T    optimize rotation matrix (better conditioning)
   TURBO    =      0    0=normal 1=particle mesh
   IRESTART =      0    0=no restart 2=restart with 2 vectors
   NREBOOT  =      0    no. of reboots
   NMIN     =      0    reboot dimension
   EREF     =   0.00    reference energy to select bands
   IMIX   =      4    mixing-type and parameters
     AMIX     =   0.40;   BMIX     =  1.00
     AMIX_MAG =   1.60;   BMIX_MAG =  1.00
     AMIN     =   0.10
     WC   =   100.;   INIMIX=   1;  MIXPRE=   1;  MAXMIX= -45

 Intra band minimization:
   WEIMIN = 0.0000     energy-eigenvalue tresh-hold
   EBREAK =  0.31E-08  absolut break condition
   DEPER  =   0.30     relativ break condition  

   TIME   =   0.40     timestep for ELM

  volume/ion in A,a.u.               =      11.87        80.12
  Fermi-wavevector in a.u.,A,eV,Ry     =   1.595998  3.016000 34.656907  2.547211
  Thomas-Fermi vector in A             =   2.693830
 
 Write flags
   LWAVE  =      F    write WAVECAR
   LCHARG =      F    write CHGCAR
   LVTOT  =      F    write LOCPOT, total local potential
   LVHAR  =      F    write LOCPOT, Hartree potential only
   LELF   =      F    write electronic localiz. function (ELF)
   LORBIT =     11    0 simple, 1 ext, 2 COOP (PROOUT)


 Dipole corrections
   LMONO  =      F    monopole corrections only (constant potential shift)
   LDIPOL =      F    correct potential (dipole corrections)
   IDIPOL =      0    1-x, 2-y, 3-z, 4-all directions 
   EPSILON=  1.0000000 bulk dielectric constant

 Exchange correlation treatment:
   GGA     =    --    GGA type
   LEXCH   =     8    internal setting for exchange type
   VOSKOWN=      0    Vosko Wilk Nusair interpolation
   LHFCALC =     F    Hartree Fock is set to
   LHFONE  =     F    Hartree Fock one center treatment
   AEXX    =    0.0000 exact exchange contribution

 Linear response parameters
   LEPSILON=     F    determine dielectric tensor
   LRPA    =     F    only Hartree local field effects (RPA)
   LNABLA  =     F    use nabla operator in PAW spheres
   LVEL    =     F    velocity operator in full k-point grid
   LINTERFAST=   F  fast interpolation
   KINTER  =     0    interpolate to denser k-point grid
   CSHIFT  =0.1000    complex shift for real part using Kramers Kronig
   OMEGAMAX=  -1.0    maximum frequency
   DEG_THRESHOLD= 0.2000000E-02 threshold for treating states as degnerate
   RTIME   =    0.100 relaxation time in fs

 Orbital magnetization related:
   ORBITALMAG=     F  switch on orbital magnetization
   LCHIMAG   =     F  perturbation theory with respect to B field
   DQ        =  0.001000  dq finite difference perturbation B field



--------------------------------------------------------------------------------------------------------


 Static calculation
 charge density and potential remain constant during run
 non-spin polarized calculation
 Variant of blocked Davidson
 Davidson routine will perform the subspace rotation
 perform sub-space diagonalisation
    after iterative eigenvector-optimisation
 no mixing
 using additional bands           74
 real space projection scheme for non local part
 use partial core corrections
 calculate Harris-corrections to forces 
   (improved forces if not selfconsistent)
 use gradient corrections 
 WARNING: stress and forces are not correct
  (second derivative of E(xc) not defined)
 use of overlap-Matrix (Vanderbilt PP)
 Methfessel and Paxton  Order N= 1 SIGMA  =   0.10


--------------------------------------------------------------------------------------------------------


  energy-cutoff  :      500.00
  volume of cell :       11.87
      direct lattice vectors                 reciprocal lattice vectors
    -1.810631000 -1.810631000  0.000000000    -0.276146824 -0.276146824  0.276146824
    -1.810631000  0.000000000 -1.810631000    -0.276146824  0.276146824 -0.276146824
     0.000000000 -1.810631000 -1.810631000     0.276146824 -0.276146824 -0.276146824

  length of vectors
     2.560618917  2.560618917  2.560618917     0.478300329  0.478300329  0.478300329


 
 old parameters found on file WAVECAR:
  energy-cutoff  :      520.00
  volume of cell :       11.87
      direct lattice vectors                 reciprocal lattice vectors
    -1.810631000 -1.810631000  0.000000000    -0.276146824 -0.276146824  0.276146824
    -1.810631000  0.000000000 -1.810631000    -0.276146824  0.276146824 -0.276146824
     0.000000000 -1.810631000 -1.810631000     0.276146824 -0.276146824 -0.276146824

  length of vectors

 
 k-points in units of 2pi/SCALE and weight: k-points : CUBIC - FCC                  
   0.00000000  0.00000000  0.00000000       0.003
   0.00000000  0.00000000 -0.00708069       0.003
   0.00000000  0.00000000 -0.01416138       0.003
   0.00000000  0.00000000 -0.02124206       0.003
   0.00000000  0.00000000 -0.02832275       0.003
   0.00000000  0.00000000 -0.03540344       0.003
   0.00000000  0.00000000 -0.04248413       0.003
   0.00000000  0.00000000 -0.04956481       0.003
   0.00000000  0.00000000 -0.05664550       0.003
   0.00000000  0.00000000 -0.06372619       0.003
   0.00000000  0.00000000 -0.07080688       0.003
   0.00000000  0.00000000 -0.07788757       0.003
   0.00000000  0.00000000 -0.08496825       0.003
   0.00000000  0.00000000 -0.09204894       0.003
   0.00000000  0.00000000 -0.09912963       0.003
   0.00000000  0.00000000 -0.10621032       0.003
   0.00000000  0.00000000 -0.11329100       0.003
   0.00000000  0.00000000 -0.12037169       0.003
   0.00000000  0.00000000 -0.12745238       0.003
   0.00000000  0.00000000 -0.13453307       0.003
   0.00000000  0.00000000 -0.14161376       0.003
   0.00000000  0.00000000 -0.14869444       0.003
   0.00000000  0.00000000 -0.15577513       0.003
   0.00000000  0.00000000 -0.16285582       0.003
   0.00000000  0.00000000 -0.16993651       0.003
   0.00000000  0.00000000 -0.17701719       0.003
   0.00000000  0.00000000 -0.18409788       0.003
   0.00000000  0.00000000 -0.19117857       0.003
   0.00000000  0.00000000 -0.19825926       0.003
   0.00000000  0.00000000 -0.20533995       0.003
   0.00000000  0.00000000 -0.21242063       0.003
   0.00000000  0.00000000 -0.21950132       0.003
   0.00000000  0.00000000 -0.22658201       0.003
   0.00000000  0.00000000 -0.23366270       0.003
   0.00000000  0.00000000 -0.24074338       0.003
   0.00000000  0.00000000 -0.24782407       0.003
   0.00000000  0.00000000 -0.25490476       0.003
   0.00000000  0.00000000 -0.26198545       0.003
   0.00000000  0.00000000 -0.26906614       0.003
   0.00000000  0.00000000 -0.27614682       0.003
   0.00000000  0.00000000 -0.27614682       0.003
  -0.00354034  0.00000000 -0.27614682       0.003
  -0.00708069 -0.00000000 -0.27614682       0.003
  -0.01062103  0.00000000 -0.27614682       0.003
  -0.01416138  0.00000000 -0.27614682       0.003
  -0.01770172  0.00000000 -0.27614682       0.003
  -0.02124206  0.00000000 -0.27614682       0.003
  -0.02478241  0.00000000 -0.27614682       0.003
  -0.02832275  0.00000000 -0.27614682       0.003
  -0.03186310  0.00000000 -0.27614682       0.003
  -0.03540344  0.00000000 -0.27614682       0.003
  -0.03894378 -0.00000000 -0.27614682       0.003
  -0.04248413 -0.00000000 -0.27614682       0.003
  -0.04602447  0.00000000 -0.27614682       0.003
  -0.04956481  0.00000000 -0.27614682       0.003
  -0.05310516  0.00000000 -0.27614682       0.003
  -0.05664550  0.00000000 -0.27614682       0.003
  -0.06018585  0.00000000 -0.27614682       0.003
  -0.06372619  0.00000000 -0.27614682       0.003
  -0.06726653  0.00000000 -0.27614682       0.003
  -0.07080688  0.00000000 -0.27614682       0.003
  -0.07434722  0.00000000 -0.27614682       0.003
  -0.07788757  0.00000000 -0.27614682       0.003
  -0.08142791  0.00000000 -0.27614682       0.003
  -0.08496825  0.00000000 -0.27614682       0.003
  -0.08850860  0.00000000 -0.27614682       0.003
  -0.09204894  0.00000000 -0.27614682       0.003
  -0.09558929  0.00000000 -0.27614682       0.003
  -0.09912963  0.00000000 -0.27614682       0.003
  -0.10266997  0.00000000 -0.27614682       0.003
  -0.10621032  0.00000000 -0.27614682       0.003
  -0.10975066  0.00000000 -0.27614682       0.003
  -0.11329100  0.00000000 -0.27614682       0.003
  -0.11683135  0.00000000 -0.27614682       0.003
  -0.12037169  0.00000000 -0.27614682       0.003
  -0.12391204  0.00000000 -0.27614682       0.003
  -0.12745238  0.00000000 -0.27614682       0.003
  -0.13099272  0.00000000 -0.27614682       0.003
  -0.13453307  0.00000000 -0.27614682       0.003
  -0.13807341  0.00000000 -0.27614682       0.003
  -0.13807341  0.00000000 -0.27614682       0.003
  -0.13984358  0.00000000 -0.27437665       0.003
  -0.14161376  0.00000000 -0.27260648       0.003
  -0.14338393  0.00000000 -0.27083631       0.003
  -0.14515410  0.00000000 -0.26906614       0.003
  -0.14692427  0.00000000 -0.26729596       0.003
  -0.14869444  0.00000000 -0.26552579       0.003
  -0.15046462  0.00000000 -0.26375562       0.003
  -0.15223479  0.00000000 -0.26198545       0.003
  -0.15400496  0.00000000 -0.26021528       0.003
  -0.15577513  0.00000000 -0.25844510       0.003
  -0.15754530  0.00000000 -0.25667493       0.003
  -0.15931548  0.00000000 -0.25490476       0.003
  -0.16108565  0.00000000 -0.25313459       0.003
  -0.16285582  0.00000000 -0.25136442       0.003
  -0.16462599  0.00000000 -0.24959424       0.003
  -0.16639616  0.00000000 -0.24782407       0.003
  -0.16816634  0.00000000 -0.24605390       0.003
  -0.16993651  0.00000000 -0.24428373       0.003
  -0.17170668  0.00000000 -0.24251356       0.003
  -0.17347685  0.00000000 -0.24074338       0.003
  -0.17524702  0.00000000 -0.23897321       0.003
  -0.17701719  0.00000000 -0.23720304       0.003
  -0.17878737  0.00000000 -0.23543287       0.003
  -0.18055754  0.00000000 -0.23366270       0.003
  -0.18232771  0.00000000 -0.23189253       0.003
  -0.18409788  0.00000000 -0.23012235       0.003
  -0.18586805  0.00000000 -0.22835218       0.003
  -0.18763823  0.00000000 -0.22658201       0.003
  -0.18940840  0.00000000 -0.22481184       0.003
  -0.19117857  0.00000000 -0.22304167       0.003
  -0.19294874  0.00000000 -0.22127149       0.003
  -0.19471891  0.00000000 -0.21950132       0.003
  -0.19648909  0.00000000 -0.21773115       0.003
  -0.19825926  0.00000000 -0.21596098       0.003
  -0.20002943  0.00000000 -0.21419081       0.003
  -0.20179960  0.00000000 -0.21242063       0.003
  -0.20356977  0.00000000 -0.21065046       0.003
  -0.20533995  0.00000000 -0.20888029       0.003
  -0.20711012  0.00000000 -0.20711012       0.003
  -0.20711012  0.00000000 -0.20711012       0.003
  -0.20179960  0.00000000 -0.20179960       0.003
  -0.19648909  0.00000000 -0.19648909       0.003
  -0.19117857  0.00000000 -0.19117857       0.003
  -0.18586805  0.00000000 -0.18586805       0.003
  -0.18055754  0.00000000 -0.18055754       0.003
  -0.17524702  0.00000000 -0.17524702       0.003
  -0.16993651  0.00000000 -0.16993651       0.003
  -0.16462599  0.00000000 -0.16462599       0.003
  -0.15931548  0.00000000 -0.15931548       0.003
  -0.15400496  0.00000000 -0.15400496       0.003
  -0.14869444  0.00000000 -0.14869444       0.003
  -0.14338393  0.00000000 -0.14338393       0.003
  -0.13807341  0.00000000 -0.13807341       0.003
  -0.13276290  0.00000000 -0.13276290       0.003
  -0.12745238  0.00000000 -0.12745238       0.003
  -0.12214186  0.00000000 -0.12214186       0.003
  -0.11683135  0.00000000 -0.11683135       0.003
  -0.11152083  0.00000000 -0.11152083       0.003
  -0.10621032  0.00000000 -0.10621032       0.003
  -0.10089980  0.00000000 -0.10089980       0.003
  -0.09558929  0.00000000 -0.09558929       0.003
  -0.09027877  0.00000000 -0.09027877       0.003
  -0.08496825  0.00000000 -0.08496825       0.003
  -0.07965774  0.00000000 -0.07965774       0.003
  -0.07434722  0.00000000 -0.07434722       0.003
  -0.06903671  0.00000000 -0.06903671       0.003
  -0.06372619  0.00000000 -0.06372619       0.003
  -0.05841567  0.00000000 -0.05841567       0.003
  -0.05310516  0.00000000 -0.05310516       0.003
  -0.04779464  0.00000000 -0.04779464       0.003
  -0.04248413  0.00000000 -0.04248413       0.003
  -0.03717361  0.00000000 -0.03717361       0.003
  -0.03186310  0.00000000 -0.03186310       0.003
  -0.02655258  0.00000000 -0.02655258       0.003
  -0.02124206  0.00000000 -0.02124206       0.003
  -0.01593155  0.00000000 -0.01593155       0.003
  -0.01062103  0.00000000 -0.01062103       0.003
  -0.00531052  0.00000000 -0.00531052       0.003
   0.00000000  0.00000000  0.00000000       0.003
   0.00000000  0.00000000  0.00000000       0.003
  -0.00354034 -0.00354034 -0.00354034       0.003
  -0.00708069 -0.00708069 -0.00708069       0.003
  -0.01062103 -0.01062103 -0.01062103       0.003
  -0.01416138 -0.01416138 -0.01416138       0.003
  -0.01770172 -0.01770172 -0.01770172       0.003
  -0.02124206 -0.02124206 -0.02124206       0.003
  -0.02478241 -0.02478241 -0.02478241       0.003
  -0.02832275 -0.02832275 -0.02832275       0.003
  -0.03186310 -0.03186310 -0.03186310       0.003
  -0.03540344 -0.03540344 -0.03540344       0.003
  -0.03894378 -0.03894378 -0.03894378       0.003
  -0.04248413 -0.04248413 -0.04248413       0.003
  -0.04602447 -0.04602447 -0.04602447       0.003
  -0.04956481 -0.04956481 -0.04956481       0.003
  -0.05310516 -0.05310516 -0.05310516       0.003
  -0.05664550 -0.05664550 -0.05664550       0.003
  -0.06018585 -0.06018585 -0.06018585       0.003
  -0.06372619 -0.06372619 -0.06372619       0.003
  -0.06726653 -0.06726653 -0.06726653       0.003
  -0.07080688 -0.07080688 -0.07080688       0.003
  -0.07434722 -0.07434722 -0.07434722       0.003
  -0.07788757 -0.07788757 -0.07788757       0.003
  -0.08142791 -0.08142791 -0.08142791       0.003
  -0.08496825 -0.08496825 -0.08496825       0.003
  -0.08850860 -0.08850860 -0.08850860       0.003
  -0.09204894 -0.09204894 -0.09204894       0.003
  -0.09558929 -0.09558929 -0.09558929       0.003
  -0.09912963 -0.09912963 -0.09912963       0.003
  -0.10266997 -0.10266997 -0.10266997       0.003
  -0.10621032 -0.10621032 -0.10621032       0.003
  -0.10975066 -0.10975066 -0.10975066       0.003
  -0.11329100 -0.11329100 -0.11329100       0.003
  -0.11683135 -0.11683135 -0.11683135       0.003
  -0.12037169 -0.12037169 -0.12037169       0.003
  -0.12391204 -0.12391204 -0.12391204       0.003
  -0.12745238 -0.12745238 -0.12745238       0.003
  -0.13099272 -0.13099272 -0.13099272       0.003
  -0.13453307 -0.13453307 -0.13453307       0.003
  -0.13807341 -0.13807341 -0.13807341       0.003
  -0.13807341 -0.13807341 -0.13807341       0.003
  -0.13630324 -0.13630324 -0.14161376       0.003
  -0.13453307 -0.13453307 -0.14515410       0.003
  -0.13276290 -0.13276290 -0.14869444       0.003
  -0.13099272 -0.13099272 -0.15223479       0.003
  -0.12922255 -0.12922255 -0.15577513       0.003
  -0.12745238 -0.12745238 -0.15931548       0.003
  -0.12568221 -0.12568221 -0.16285582       0.003
  -0.12391204 -0.12391204 -0.16639616       0.003
  -0.12214186 -0.12214186 -0.16993651       0.003
  -0.12037169 -0.12037169 -0.17347685       0.003
  -0.11860152 -0.11860152 -0.17701719       0.003
  -0.11683135 -0.11683135 -0.18055754       0.003
  -0.11506118 -0.11506118 -0.18409788       0.003
  -0.11329100 -0.11329100 -0.18763823       0.003
  -0.11152083 -0.11152083 -0.19117857       0.003
  -0.10975066 -0.10975066 -0.19471891       0.003
  -0.10798049 -0.10798049 -0.19825926       0.003
  -0.10621032 -0.10621032 -0.20179960       0.003
  -0.10444014 -0.10444014 -0.20533995       0.003
  -0.10266997 -0.10266997 -0.20888029       0.003
  -0.10089980 -0.10089980 -0.21242063       0.003
  -0.09912963 -0.09912963 -0.21596098       0.003
  -0.09735946 -0.09735946 -0.21950132       0.003
  -0.09558929 -0.09558929 -0.22304167       0.003
  -0.09381911 -0.09381911 -0.22658201       0.003
  -0.09204894 -0.09204894 -0.23012235       0.003
  -0.09027877 -0.09027877 -0.23366270       0.003
  -0.08850860 -0.08850860 -0.23720304       0.003
  -0.08673843 -0.08673843 -0.24074338       0.003
  -0.08496825 -0.08496825 -0.24428373       0.003
  -0.08319808 -0.08319808 -0.24782407       0.003
  -0.08142791 -0.08142791 -0.25136442       0.003
  -0.07965774 -0.07965774 -0.25490476       0.003
  -0.07788757 -0.07788757 -0.25844510       0.003
  -0.07611739 -0.07611739 -0.26198545       0.003
  -0.07434722 -0.07434722 -0.26552579       0.003
  -0.07257705 -0.07257705 -0.26906614       0.003
  -0.07080688 -0.07080688 -0.27260648       0.003
  -0.06903671 -0.06903671 -0.27614682       0.003
  -0.06903671 -0.06903671 -0.27614682       0.003
  -0.07080688 -0.06726653 -0.27614682       0.003
  -0.07257705 -0.06549636 -0.27614682       0.003
  -0.07434722 -0.06372619 -0.27614682       0.003
  -0.07611739 -0.06195602 -0.27614682       0.003
  -0.07788757 -0.06018585 -0.27614682       0.003
  -0.07965774 -0.05841567 -0.27614682       0.003
  -0.08142791 -0.05664550 -0.27614682       0.003
  -0.08319808 -0.05487533 -0.27614682       0.003
  -0.08496825 -0.05310516 -0.27614682       0.003
  -0.08673843 -0.05133499 -0.27614682       0.003
  -0.08850860 -0.04956481 -0.27614682       0.003
  -0.09027877 -0.04779464 -0.27614682       0.003
  -0.09204894 -0.04602447 -0.27614682       0.003
  -0.09381911 -0.04425430 -0.27614682       0.003
  -0.09558929 -0.04248413 -0.27614682       0.003
  -0.09735946 -0.04071395 -0.27614682       0.003
  -0.09912963 -0.03894378 -0.27614682       0.003
  -0.10089980 -0.03717361 -0.27614682       0.003
  -0.10266997 -0.03540344 -0.27614682       0.003
  -0.10444014 -0.03363327 -0.27614682       0.003
  -0.10621032 -0.03186310 -0.27614682       0.003
  -0.10798049 -0.03009292 -0.27614682       0.003
  -0.10975066 -0.02832275 -0.27614682       0.003
  -0.11152083 -0.02655258 -0.27614682       0.003
  -0.11329100 -0.02478241 -0.27614682       0.003
  -0.11506118 -0.02301224 -0.27614682       0.003
  -0.11683135 -0.02124206 -0.27614682       0.003
  -0.11860152 -0.01947189 -0.27614682       0.003
  -0.12037169 -0.01770172 -0.27614682       0.003
  -0.12214186 -0.01593155 -0.27614682       0.003
  -0.12391204 -0.01416138 -0.27614682       0.003
  -0.12568221 -0.01239120 -0.27614682       0.003
  -0.12745238 -0.01062103 -0.27614682       0.003
  -0.12922255 -0.00885086 -0.27614682       0.003
  -0.13099272 -0.00708069 -0.27614682       0.003
  -0.13276290 -0.00531052 -0.27614682       0.003
  -0.13453307 -0.00354034 -0.27614682       0.003
  -0.13630324 -0.00177017 -0.27614682       0.003
  -0.13807341  0.00000000 -0.27614682       0.003
  -0.13807341  0.00000000 -0.27614682       0.003
  -0.13807341 -0.00354034 -0.27260648       0.003
  -0.13807341 -0.00708069 -0.26906614       0.003
  -0.13807341 -0.01062103 -0.26552579       0.003
  -0.13807341 -0.01416138 -0.26198545       0.003
  -0.13807341 -0.01770172 -0.25844510       0.003
  -0.13807341 -0.02124206 -0.25490476       0.003
  -0.13807341 -0.02478241 -0.25136442       0.003
  -0.13807341 -0.02832275 -0.24782407       0.003
  -0.13807341 -0.03186310 -0.24428373       0.003
  -0.13807341 -0.03540344 -0.24074338       0.003
  -0.13807341 -0.03894378 -0.23720304       0.003
  -0.13807341 -0.04248413 -0.23366270       0.003
  -0.13807341 -0.04602447 -0.23012235       0.003
  -0.13807341 -0.04956481 -0.22658201       0.003
  -0.13807341 -0.05310516 -0.22304167       0.003
  -0.13807341 -0.05664550 -0.21950132       0.003
  -0.13807341 -0.06018585 -0.21596098       0.003
  -0.13807341 -0.06372619 -0.21242063       0.003
  -0.13807341 -0.06726653 -0.20888029       0.003
  -0.13807341 -0.07080688 -0.20533995       0.003
  -0.13807341 -0.07434722 -0.20179960       0.003
  -0.13807341 -0.07788757 -0.19825926       0.003
  -0.13807341 -0.08142791 -0.19471891       0.003
  -0.13807341 -0.08496825 -0.19117857       0.003
  -0.13807341 -0.08850860 -0.18763823       0.003
  -0.13807341 -0.09204894 -0.18409788       0.003
  -0.13807341 -0.09558929 -0.18055754       0.003
  -0.13807341 -0.09912963 -0.17701719       0.003
  -0.13807341 -0.10266997 -0.17347685       0.003
  -0.13807341 -0.10621032 -0.16993651       0.003
  -0.13807341 -0.10975066 -0.16639616       0.003
  -0.13807341 -0.11329100 -0.16285582       0.003
  -0.13807341 -0.11683135 -0.15931548       0.003
  -0.13807341 -0.12037169 -0.15577513       0.003
  -0.13807341 -0.12391204 -0.15223479       0.003
  -0.13807341 -0.12745238 -0.14869444       0.003
  -0.13807341 -0.13099272 -0.14515410       0.003
  -0.13807341 -0.13453307 -0.14161376       0.003
  -0.13807341 -0.13807341 -0.13807341       0.003
 
 k-points in reciprocal lattice and weights: k-points : CUBIC - FCC                  
   0.00000000  0.00000000  0.00000000       0.003
   0.00000000  0.01282051  0.01282051       0.003
   0.00000000  0.02564103  0.02564103       0.003
   0.00000000  0.03846154  0.03846154       0.003
   0.00000000  0.05128205  0.05128205       0.003
   0.00000000  0.06410256  0.06410256       0.003
   0.00000000  0.07692308  0.07692308       0.003
   0.00000000  0.08974359  0.08974359       0.003
   0.00000000  0.10256410  0.10256410       0.003
   0.00000000  0.11538462  0.11538462       0.003
   0.00000000  0.12820513  0.12820513       0.003
   0.00000000  0.14102564  0.14102564       0.003
   0.00000000  0.15384615  0.15384615       0.003
   0.00000000  0.16666667  0.16666667       0.003
   0.00000000  0.17948718  0.17948718       0.003
   0.00000000  0.19230769  0.19230769       0.003
   0.00000000  0.20512821  0.20512821       0.003
   0.00000000  0.21794872  0.21794872       0.003
   0.00000000  0.23076923  0.23076923       0.003
   0.00000000  0.24358974  0.24358974       0.003
   0.00000000  0.25641026  0.25641026       0.003
   0.00000000  0.26923077  0.26923077       0.003
   0.00000000  0.28205128  0.28205128       0.003
   0.00000000  0.29487179  0.29487179       0.003
   0.00000000  0.30769231  0.30769231       0.003
   0.00000000  0.32051282  0.32051282       0.003
   0.00000000  0.33333333  0.33333333       0.003
   0.00000000  0.34615385  0.34615385       0.003
   0.00000000  0.35897436  0.35897436       0.003
   0.00000000  0.37179487  0.37179487       0.003
   0.00000000  0.38461538  0.38461538       0.003
   0.00000000  0.39743590  0.39743590       0.003
   0.00000000  0.41025641  0.41025641       0.003
   0.00000000  0.42307692  0.42307692       0.003
   0.00000000  0.43589744  0.43589744       0.003
   0.00000000  0.44871795  0.44871795       0.003
   0.00000000  0.46153846  0.46153846       0.003
   0.00000000  0.47435897  0.47435897       0.003
   0.00000000  0.48717949  0.48717949       0.003
   0.00000000  0.50000000  0.50000000       0.003
   0.00000000  0.50000000  0.50000000       0.003
   0.00641026  0.50641026  0.50000000       0.003
   0.01282051  0.51282051  0.50000000       0.003
   0.01923077  0.51923077  0.50000000       0.003
   0.02564103  0.52564103  0.50000000       0.003
   0.03205128  0.53205128  0.50000000       0.003
   0.03846154  0.53846154  0.50000000       0.003
   0.04487179  0.54487179  0.50000000       0.003
   0.05128205  0.55128205  0.50000000       0.003
   0.05769231  0.55769231  0.50000000       0.003
   0.06410256  0.56410256  0.50000000       0.003
   0.07051282  0.57051282  0.50000000       0.003
   0.07692308  0.57692308  0.50000000       0.003
   0.08333333  0.58333333  0.50000000       0.003
   0.08974359  0.58974359  0.50000000       0.003
   0.09615385  0.59615385  0.50000000       0.003
   0.10256410  0.60256410  0.50000000       0.003
   0.10897436  0.60897436  0.50000000       0.003
   0.11538462  0.61538462  0.50000000       0.003
   0.12179487  0.62179487  0.50000000       0.003
   0.12820513  0.62820513  0.50000000       0.003
   0.13461538  0.63461538  0.50000000       0.003
   0.14102564  0.64102564  0.50000000       0.003
   0.14743590  0.64743590  0.50000000       0.003
   0.15384615  0.65384615  0.50000000       0.003
   0.16025641  0.66025641  0.50000000       0.003
   0.16666667  0.66666667  0.50000000       0.003
   0.17307692  0.67307692  0.50000000       0.003
   0.17948718  0.67948718  0.50000000       0.003
   0.18589744  0.68589744  0.50000000       0.003
   0.19230769  0.69230769  0.50000000       0.003
   0.19871795  0.69871795  0.50000000       0.003
   0.20512821  0.70512821  0.50000000       0.003
   0.21153846  0.71153846  0.50000000       0.003
   0.21794872  0.71794872  0.50000000       0.003
   0.22435897  0.72435897  0.50000000       0.003
   0.23076923  0.73076923  0.50000000       0.003
   0.23717949  0.73717949  0.50000000       0.003
   0.24358974  0.74358974  0.50000000       0.003
   0.25000000  0.75000000  0.50000000       0.003
   0.25000000  0.75000000  0.50000000       0.003
   0.25320513  0.75000000  0.49679487       0.003
   0.25641026  0.75000000  0.49358974       0.003
   0.25961538  0.75000000  0.49038462       0.003
   0.26282051  0.75000000  0.48717949       0.003
   0.26602564  0.75000000  0.48397436       0.003
   0.26923077  0.75000000  0.48076923       0.003
   0.27243590  0.75000000  0.47756410       0.003
   0.27564103  0.75000000  0.47435897       0.003
   0.27884615  0.75000000  0.47115385       0.003
   0.28205128  0.75000000  0.46794872       0.003
   0.28525641  0.75000000  0.46474359       0.003
   0.28846154  0.75000000  0.46153846       0.003
   0.29166667  0.75000000  0.45833333       0.003
   0.29487179  0.75000000  0.45512821       0.003
   0.29807692  0.75000000  0.45192308       0.003
   0.30128205  0.75000000  0.44871795       0.003
   0.30448718  0.75000000  0.44551282       0.003
   0.30769231  0.75000000  0.44230769       0.003
   0.31089744  0.75000000  0.43910256       0.003
   0.31410256  0.75000000  0.43589744       0.003
   0.31730769  0.75000000  0.43269231       0.003
   0.32051282  0.75000000  0.42948718       0.003
   0.32371795  0.75000000  0.42628205       0.003
   0.32692308  0.75000000  0.42307692       0.003
   0.33012821  0.75000000  0.41987179       0.003
   0.33333333  0.75000000  0.41666667       0.003
   0.33653846  0.75000000  0.41346154       0.003
   0.33974359  0.75000000  0.41025641       0.003
   0.34294872  0.75000000  0.40705128       0.003
   0.34615385  0.75000000  0.40384615       0.003
   0.34935897  0.75000000  0.40064103       0.003
   0.35256410  0.75000000  0.39743590       0.003
   0.35576923  0.75000000  0.39423077       0.003
   0.35897436  0.75000000  0.39102564       0.003
   0.36217949  0.75000000  0.38782051       0.003
   0.36538462  0.75000000  0.38461538       0.003
   0.36858974  0.75000000  0.38141026       0.003
   0.37179487  0.75000000  0.37820513       0.003
   0.37500000  0.75000000  0.37500000       0.003
   0.37500000  0.75000000  0.37500000       0.003
   0.36538462  0.73076923  0.36538462       0.003
   0.35576923  0.71153846  0.35576923       0.003
   0.34615385  0.69230769  0.34615385       0.003
   0.33653846  0.67307692  0.33653846       0.003
   0.32692308  0.65384615  0.32692308       0.003
   0.31730769  0.63461538  0.31730769       0.003
   0.30769231  0.61538462  0.30769231       0.003
   0.29807692  0.59615385  0.29807692       0.003
   0.28846154  0.57692308  0.28846154       0.003
   0.27884615  0.55769231  0.27884615       0.003
   0.26923077  0.53846154  0.26923077       0.003
   0.25961538  0.51923077  0.25961538       0.003
   0.25000000  0.50000000  0.25000000       0.003
   0.24038462  0.48076923  0.24038462       0.003
   0.23076923  0.46153846  0.23076923       0.003
   0.22115385  0.44230769  0.22115385       0.003
   0.21153846  0.42307692  0.21153846       0.003
   0.20192308  0.40384615  0.20192308       0.003
   0.19230769  0.38461538  0.19230769       0.003
   0.18269231  0.36538462  0.18269231       0.003
   0.17307692  0.34615385  0.17307692       0.003
   0.16346154  0.32692308  0.16346154       0.003
   0.15384615  0.30769231  0.15384615       0.003
   0.14423077  0.28846154  0.14423077       0.003
   0.13461538  0.26923077  0.13461538       0.003
   0.12500000  0.25000000  0.12500000       0.003
   0.11538462  0.23076923  0.11538462       0.003
   0.10576923  0.21153846  0.10576923       0.003
   0.09615385  0.19230769  0.09615385       0.003
   0.08653846  0.17307692  0.08653846       0.003
   0.07692308  0.15384615  0.07692308       0.003
   0.06730769  0.13461538  0.06730769       0.003
   0.05769231  0.11538462  0.05769231       0.003
   0.04807692  0.09615385  0.04807692       0.003
   0.03846154  0.07692308  0.03846154       0.003
   0.02884615  0.05769231  0.02884615       0.003
   0.01923077  0.03846154  0.01923077       0.003
   0.00961538  0.01923077  0.00961538       0.003
   0.00000000  0.00000000  0.00000000       0.003
   0.00000000  0.00000000  0.00000000       0.003
   0.01282051  0.01282051  0.01282051       0.003
   0.02564103  0.02564103  0.02564103       0.003
   0.03846154  0.03846154  0.03846154       0.003
   0.05128205  0.05128205  0.05128205       0.003
   0.06410256  0.06410256  0.06410256       0.003
   0.07692308  0.07692308  0.07692308       0.003
   0.08974359  0.08974359  0.08974359       0.003
   0.10256410  0.10256410  0.10256410       0.003
   0.11538462  0.11538462  0.11538462       0.003
   0.12820513  0.12820513  0.12820513       0.003
   0.14102564  0.14102564  0.14102564       0.003
   0.15384615  0.15384615  0.15384615       0.003
   0.16666667  0.16666667  0.16666667       0.003
   0.17948718  0.17948718  0.17948718       0.003
   0.19230769  0.19230769  0.19230769       0.003
   0.20512821  0.20512821  0.20512821       0.003
   0.21794872  0.21794872  0.21794872       0.003
   0.23076923  0.23076923  0.23076923       0.003
   0.24358974  0.24358974  0.24358974       0.003
   0.25641026  0.25641026  0.25641026       0.003
   0.26923077  0.26923077  0.26923077       0.003
   0.28205128  0.28205128  0.28205128       0.003
   0.29487179  0.29487179  0.29487179       0.003
   0.30769231  0.30769231  0.30769231       0.003
   0.32051282  0.32051282  0.32051282       0.003
   0.33333333  0.33333333  0.33333333       0.003
   0.34615385  0.34615385  0.34615385       0.003
   0.35897436  0.35897436  0.35897436       0.003
   0.37179487  0.37179487  0.37179487       0.003
   0.38461538  0.38461538  0.38461538       0.003
   0.39743590  0.39743590  0.39743590       0.003
   0.41025641  0.41025641  0.41025641       0.003
   0.42307692  0.42307692  0.42307692       0.003
   0.43589744  0.43589744  0.43589744       0.003
   0.44871795  0.44871795  0.44871795       0.003
   0.46153846  0.46153846  0.46153846       0.003
   0.47435897  0.47435897  0.47435897       0.003
   0.48717949  0.48717949  0.48717949       0.003
   0.50000000  0.50000000  0.50000000       0.003
   0.50000000  0.50000000  0.50000000       0.003
   0.49358974  0.50320513  0.50320513       0.003
   0.48717949  0.50641026  0.50641026       0.003
   0.48076923  0.50961538  0.50961538       0.003
   0.47435897  0.51282051  0.51282051       0.003
   0.46794872  0.51602564  0.51602564       0.003
   0.46153846  0.51923077  0.51923077       0.003
   0.45512821  0.52243590  0.52243590       0.003
   0.44871795  0.52564103  0.52564103       0.003
   0.44230769  0.52884615  0.52884615       0.003
   0.43589744  0.53205128  0.53205128       0.003
   0.42948718  0.53525641  0.53525641       0.003
   0.42307692  0.53846154  0.53846154       0.003
   0.41666667  0.54166667  0.54166667       0.003
   0.41025641  0.54487179  0.54487179       0.003
   0.40384615  0.54807692  0.54807692       0.003
   0.39743590  0.55128205  0.55128205       0.003
   0.39102564  0.55448718  0.55448718       0.003
   0.38461538  0.55769231  0.55769231       0.003
   0.37820513  0.56089744  0.56089744       0.003
   0.37179487  0.56410256  0.56410256       0.003
   0.36538462  0.56730769  0.56730769       0.003
   0.35897436  0.57051282  0.57051282       0.003
   0.35256410  0.57371795  0.57371795       0.003
   0.34615385  0.57692308  0.57692308       0.003
   0.33974359  0.58012821  0.58012821       0.003
   0.33333333  0.58333333  0.58333333       0.003
   0.32692308  0.58653846  0.58653846       0.003
   0.32051282  0.58974359  0.58974359       0.003
   0.31410256  0.59294872  0.59294872       0.003
   0.30769231  0.59615385  0.59615385       0.003
   0.30128205  0.59935897  0.59935897       0.003
   0.29487179  0.60256410  0.60256410       0.003
   0.28846154  0.60576923  0.60576923       0.003
   0.28205128  0.60897436  0.60897436       0.003
   0.27564103  0.61217949  0.61217949       0.003
   0.26923077  0.61538462  0.61538462       0.003
   0.26282051  0.61858974  0.61858974       0.003
   0.25641026  0.62179487  0.62179487       0.003
   0.25000000  0.62500000  0.62500000       0.003
   0.25000000  0.62500000  0.62500000       0.003
   0.25000000  0.62820513  0.62179487       0.003
   0.25000000  0.63141026  0.61858974       0.003
   0.25000000  0.63461538  0.61538462       0.003
   0.25000000  0.63782051  0.61217949       0.003
   0.25000000  0.64102564  0.60897436       0.003
   0.25000000  0.64423077  0.60576923       0.003
   0.25000000  0.64743590  0.60256410       0.003
   0.25000000  0.65064103  0.59935897       0.003
   0.25000000  0.65384615  0.59615385       0.003
   0.25000000  0.65705128  0.59294872       0.003
   0.25000000  0.66025641  0.58974359       0.003
   0.25000000  0.66346154  0.58653846       0.003
   0.25000000  0.66666667  0.58333333       0.003
   0.25000000  0.66987179  0.58012821       0.003
   0.25000000  0.67307692  0.57692308       0.003
   0.25000000  0.67628205  0.57371795       0.003
   0.25000000  0.67948718  0.57051282       0.003
   0.25000000  0.68269231  0.56730769       0.003
   0.25000000  0.68589744  0.56410256       0.003
   0.25000000  0.68910256  0.56089744       0.003
   0.25000000  0.69230769  0.55769231       0.003
   0.25000000  0.69551282  0.55448718       0.003
   0.25000000  0.69871795  0.55128205       0.003
   0.25000000  0.70192308  0.54807692       0.003
   0.25000000  0.70512821  0.54487179       0.003
   0.25000000  0.70833333  0.54166667       0.003
   0.25000000  0.71153846  0.53846154       0.003
   0.25000000  0.71474359  0.53525641       0.003
   0.25000000  0.71794872  0.53205128       0.003
   0.25000000  0.72115385  0.52884615       0.003
   0.25000000  0.72435897  0.52564103       0.003
   0.25000000  0.72756410  0.52243590       0.003
   0.25000000  0.73076923  0.51923077       0.003
   0.25000000  0.73397436  0.51602564       0.003
   0.25000000  0.73717949  0.51282051       0.003
   0.25000000  0.74038462  0.50961538       0.003
   0.25000000  0.74358974  0.50641026       0.003
   0.25000000  0.74679487  0.50320513       0.003
   0.25000000  0.75000000  0.50000000       0.003
   0.25000000  0.75000000  0.50000000       0.003
   0.25641026  0.74358974  0.50000000       0.003
   0.26282051  0.73717949  0.50000000       0.003
   0.26923077  0.73076923  0.50000000       0.003
   0.27564103  0.72435897  0.50000000       0.003
   0.28205128  0.71794872  0.50000000       0.003
   0.28846154  0.71153846  0.50000000       0.003
   0.29487179  0.70512821  0.50000000       0.003
   0.30128205  0.69871795  0.50000000       0.003
   0.30769231  0.69230769  0.50000000       0.003
   0.31410256  0.68589744  0.50000000       0.003
   0.32051282  0.67948718  0.50000000       0.003
   0.32692308  0.67307692  0.50000000       0.003
   0.33333333  0.66666667  0.50000000       0.003
   0.33974359  0.66025641  0.50000000       0.003
   0.34615385  0.65384615  0.50000000       0.003
   0.35256410  0.64743590  0.50000000       0.003
   0.35897436  0.64102564  0.50000000       0.003
   0.36538462  0.63461538  0.50000000       0.003
   0.37179487  0.62820513  0.50000000       0.003
   0.37820513  0.62179487  0.50000000       0.003
   0.38461538  0.61538462  0.50000000       0.003
   0.39102564  0.60897436  0.50000000       0.003
   0.39743590  0.60256410  0.50000000       0.003
   0.40384615  0.59615385  0.50000000       0.003
   0.41025641  0.58974359  0.50000000       0.003
   0.41666667  0.58333333  0.50000000       0.003
   0.42307692  0.57692308  0.50000000       0.003
   0.42948718  0.57051282  0.50000000       0.003
   0.43589744  0.56410256  0.50000000       0.003
   0.44230769  0.55769231  0.50000000       0.003
   0.44871795  0.55128205  0.50000000       0.003
   0.45512821  0.54487179  0.50000000       0.003
   0.46153846  0.53846154  0.50000000       0.003
   0.46794872  0.53205128  0.50000000       0.003
   0.47435897  0.52564103  0.50000000       0.003
   0.48076923  0.51923077  0.50000000       0.003
   0.48717949  0.51282051  0.50000000       0.003
   0.49358974  0.50641026  0.50000000       0.003
   0.50000000  0.50000000  0.50000000       0.003
 
 position of ions in fractional coordinates (direct lattice) 
   0.00000000  0.00000000  0.00000000
 
 position of ions in cartesian coordinates  (Angst):
   0.00000000  0.00000000  0.00000000
 


--------------------------------------------------------------------------------------------------------


 k-point  1 :   0.0000 0.0000 0.0000  plane waves:     307
 k-point  2 :   0.0000 0.0128 0.0128  plane waves:     307
 k-point  3 :   0.0000 0.0256 0.0256  plane waves:     311
 k-point  4 :   0.0000 0.0385 0.0385  plane waves:     307
 k-point  5 :   0.0000 0.0513 0.0513  plane waves:     299
 k-point  6 :   0.0000 0.0641 0.0641  plane waves:     307
 k-point  7 :   0.0000 0.0769 0.0769  plane waves:     307
 k-point  8 :   0.0000 0.0897 0.0897  plane waves:     307
 k-point  9 :   0.0000 0.1026 0.1026  plane waves:     307
 k-point 10 :   0.0000 0.1154 0.1154  plane waves:     307
 k-point 11 :   0.0000 0.1282 0.1282  plane waves:     307
 k-point 12 :   0.0000 0.1410 0.1410  plane waves:     307
 k-point 13 :   0.0000 0.1538 0.1538  plane waves:     303
 k-point 14 :   0.0000 0.1667 0.1667  plane waves:     303
 k-point 15 :   0.0000 0.1795 0.1795  plane waves:     303
 k-point 16 :   0.0000 0.1923 0.1923  plane waves:     303
 k-point 17 :   0.0000 0.2051 0.2051  plane waves:     303
 k-point 18 :   0.0000 0.2179 0.2179  plane waves:     303
 k-point 19 :   0.0000 0.2308 0.2308  plane waves:     303
 k-point 20 :   0.0000 0.2436 0.2436  plane waves:     303
 k-point 21 :   0.0000 0.2564 0.2564  plane waves:     303
 k-point 22 :   0.0000 0.2692 0.2692  plane waves:     303
 k-point 23 :   0.0000 0.2821 0.2821  plane waves:     307
 k-point 24 :   0.0000 0.2949 0.2949  plane waves:     307
 k-point 25 :   0.0000 0.3077 0.3077  plane waves:     310
 k-point 26 :   0.0000 0.3205 0.3205  plane waves:     310
 k-point 27 :   0.0000 0.3333 0.3333  plane waves:     310
 k-point 28 :   0.0000 0.3462 0.3462  plane waves:     310
 k-point 29 :   0.0000 0.3590 0.3590  plane waves:     310
 k-point 30 :   0.0000 0.3718 0.3718  plane waves:     310
 k-point 31 :   0.0000 0.3846 0.3846  plane waves:     310
 k-point 32 :   0.0000 0.3974 0.3974  plane waves:     310
 k-point 33 :   0.0000 0.4103 0.4103  plane waves:     310
 k-point 34 :   0.0000 0.4231 0.4231  plane waves:     310
 k-point 35 :   0.0000 0.4359 0.4359  plane waves:     302
 k-point 36 :   0.0000 0.4487 0.4487  plane waves:     302
 k-point 37 :   0.0000 0.4615 0.4615  plane waves:     302
 k-point 38 :   0.0000 0.4744 0.4744  plane waves:     302
 k-point 39 :   0.0000 0.4872 0.4872  plane waves:     302
 k-point 40 :   0.0000 0.5000 0.5000  plane waves:     302
 k-point 41 :   0.0000 0.5000 0.5000  plane waves:     302
 k-point 42 :   0.0064 0.5064 0.5000  plane waves:     302
 k-point 43 :   0.0128 0.5128 0.5000  plane waves:     302
 k-point 44 :   0.0192 0.5192 0.5000  plane waves:     302
 k-point 45 :   0.0256 0.5256 0.5000  plane waves:     302
 k-point 46 :   0.0321 0.5321 0.5000  plane waves:     302
 k-point 47 :   0.0385 0.5385 0.5000  plane waves:     302
 k-point 48 :   0.0449 0.5449 0.5000  plane waves:     302
 k-point 49 :   0.0513 0.5513 0.5000  plane waves:     302
 k-point 50 :   0.0577 0.5577 0.5000  plane waves:     302
 k-point 51 :   0.0641 0.5641 0.5000  plane waves:     304
 k-point 52 :   0.0705 0.5705 0.5000  plane waves:     304
 k-point 53 :   0.0769 0.5769 0.5000  plane waves:     304
 k-point 54 :   0.0833 0.5833 0.5000  plane waves:     300
 k-point 55 :   0.0897 0.5897 0.5000  plane waves:     300
 k-point 56 :   0.0962 0.5962 0.5000  plane waves:     304
 k-point 57 :   0.1026 0.6026 0.5000  plane waves:     304
 k-point 58 :   0.1090 0.6090 0.5000  plane waves:     300
 k-point 59 :   0.1154 0.6154 0.5000  plane waves:     300
 k-point 60 :   0.1218 0.6218 0.5000  plane waves:     300
 k-point 61 :   0.1282 0.6282 0.5000  plane waves:     300
 k-point 62 :   0.1346 0.6346 0.5000  plane waves:     300
 k-point 63 :   0.1410 0.6410 0.5000  plane waves:     300
 k-point 64 :   0.1474 0.6474 0.5000  plane waves:     300
 k-point 65 :   0.1538 0.6538 0.5000  plane waves:     300
 k-point 66 :   0.1603 0.6603 0.5000  plane waves:     294
 k-point 67 :   0.1667 0.6667 0.5000  plane waves:     294
 k-point 68 :   0.1731 0.6731 0.5000  plane waves:     294
 k-point 69 :   0.1795 0.6795 0.5000  plane waves:     294
 k-point 70 :   0.1859 0.6859 0.5000  plane waves:     294
 k-point 71 :   0.1923 0.6923 0.5000  plane waves:     294
 k-point 72 :   0.1987 0.6987 0.5000  plane waves:     298
 k-point 73 :   0.2051 0.7051 0.5000  plane waves:     298
 k-point 74 :   0.2115 0.7115 0.5000  plane waves:     298
 k-point 75 :   0.2179 0.7179 0.5000  plane waves:     302
 k-point 76 :   0.2244 0.7244 0.5000  plane waves:     302
 k-point 77 :   0.2308 0.7308 0.5000  plane waves:     302
 k-point 78 :   0.2372 0.7372 0.5000  plane waves:     308
 k-point 79 :   0.2436 0.7436 0.5000  plane waves:     308
 k-point 80 :   0.2500 0.7500 0.5000  plane waves:     308
 k-point 81 :   0.2500 0.7500 0.5000  plane waves:     308
 k-point 82 :   0.2532 0.7500 0.4968  plane waves:     308
 k-point 83 :   0.2564 0.7500 0.4936  plane waves:     308
 k-point 84 :   0.2596 0.7500 0.4904  plane waves:     308
 k-point 85 :   0.2628 0.7500 0.4872  plane waves:     305
 k-point 86 :   0.2660 0.7500 0.4840  plane waves:     302
 k-point 87 :   0.2692 0.7500 0.4808  plane waves:     302
 k-point 88 :   0.2724 0.7500 0.4776  plane waves:     302
 k-point 89 :   0.2756 0.7500 0.4744  plane waves:     294
 k-point 90 :   0.2788 0.7500 0.4712  plane waves:     294
 k-point 91 :   0.2821 0.7500 0.4679  plane waves:     294
 k-point 92 :   0.2853 0.7500 0.4647  plane waves:     294
 k-point 93 :   0.2885 0.7500 0.4615  plane waves:     294
 k-point 94 :   0.2917 0.7500 0.4583  plane waves:     294
 k-point 95 :   0.2949 0.7500 0.4551  plane waves:     294
 k-point 96 :   0.2981 0.7500 0.4519  plane waves:     294
 k-point 97 :   0.3013 0.7500 0.4487  plane waves:     296
 k-point 98 :   0.3045 0.7500 0.4455  plane waves:     294
 k-point 99 :   0.3077 0.7500 0.4423  plane waves:     294
 k-point ** :   0.3109 0.7500 0.4391  plane waves:     294
 k-point ** :   0.3141 0.7500 0.4359  plane waves:     294
 k-point ** :   0.3173 0.7500 0.4327  plane waves:     296
 k-point ** :   0.3205 0.7500 0.4295  plane waves:     296
 k-point ** :   0.3237 0.7500 0.4263  plane waves:     296
 k-point ** :   0.3269 0.7500 0.4231  plane waves:     296
 k-point ** :   0.3301 0.7500 0.4199  plane waves:     296
 k-point ** :   0.3333 0.7500 0.4167  plane waves:     296
 k-point ** :   0.3365 0.7500 0.4135  plane waves:     296
 k-point ** :   0.3397 0.7500 0.4103  plane waves:     296
 k-point ** :   0.3429 0.7500 0.4071  plane waves:     296
 k-point ** :   0.3462 0.7500 0.4038  plane waves:     296
 k-point ** :   0.3494 0.7500 0.4006  plane waves:     298
 k-point ** :   0.3526 0.7500 0.3974  plane waves:     298
 k-point ** :   0.3558 0.7500 0.3942  plane waves:     294
 k-point ** :   0.3590 0.7500 0.3910  plane waves:     294
 k-point ** :   0.3622 0.7500 0.3878  plane waves:     296
 k-point ** :   0.3654 0.7500 0.3846  plane waves:     296
 k-point ** :   0.3686 0.7500 0.3814  plane waves:     296
 k-point ** :   0.3718 0.7500 0.3782  plane waves:     296
 k-point ** :   0.3750 0.7500 0.3750  plane waves:     296
 k-point ** :   0.3750 0.7500 0.3750  plane waves:     296
 k-point ** :   0.3654 0.7308 0.3654  plane waves:     296
 k-point ** :   0.3558 0.7115 0.3558  plane waves:     296
 k-point ** :   0.3462 0.6923 0.3462  plane waves:     288
 k-point ** :   0.3365 0.6731 0.3365  plane waves:     288
 k-point ** :   0.3269 0.6538 0.3269  plane waves:     289
 k-point ** :   0.3173 0.6346 0.3173  plane waves:     293
 k-point ** :   0.3077 0.6154 0.3077  plane waves:     293
 k-point ** :   0.2981 0.5962 0.2981  plane waves:     293
 k-point ** :   0.2885 0.5769 0.2885  plane waves:     299
 k-point ** :   0.2788 0.5577 0.2788  plane waves:     299
 k-point ** :   0.2692 0.5385 0.2692  plane waves:     303
 k-point ** :   0.2596 0.5192 0.2596  plane waves:     303
 k-point ** :   0.2500 0.5000 0.2500  plane waves:     307
 k-point ** :   0.2404 0.4808 0.2404  plane waves:     303
 k-point ** :   0.2308 0.4615 0.2308  plane waves:     303
 k-point ** :   0.2212 0.4423 0.2212  plane waves:     305
 k-point ** :   0.2115 0.4231 0.2115  plane waves:     303
 k-point ** :   0.2019 0.4038 0.2019  plane waves:     305
 k-point ** :   0.1923 0.3846 0.1923  plane waves:     303
 k-point ** :   0.1827 0.3654 0.1827  plane waves:     303
 k-point ** :   0.1731 0.3462 0.1731  plane waves:     303
 k-point ** :   0.1635 0.3269 0.1635  plane waves:     303
 k-point ** :   0.1538 0.3077 0.1538  plane waves:     303
 k-point ** :   0.1442 0.2885 0.1442  plane waves:     303
 k-point ** :   0.1346 0.2692 0.1346  plane waves:     305
 k-point ** :   0.1250 0.2500 0.1250  plane waves:     305
 k-point ** :   0.1154 0.2308 0.1154  plane waves:     305
 k-point ** :   0.1058 0.2115 0.1058  plane waves:     307
 k-point ** :   0.0962 0.1923 0.0962  plane waves:     307
 k-point ** :   0.0865 0.1731 0.0865  plane waves:     307
 k-point ** :   0.0769 0.1538 0.0769  plane waves:     307
 k-point ** :   0.0673 0.1346 0.0673  plane waves:     311
 k-point ** :   0.0577 0.1154 0.0577  plane waves:     311
 k-point ** :   0.0481 0.0962 0.0481  plane waves:     311
 k-point ** :   0.0385 0.0769 0.0385  plane waves:     311
 k-point ** :   0.0288 0.0577 0.0288  plane waves:     311
 k-point ** :   0.0192 0.0385 0.0192  plane waves:     307
 k-point ** :   0.0096 0.0192 0.0096  plane waves:     307
 k-point ** :   0.0000 0.0000 0.0000  plane waves:     307
 k-point ** :   0.0000 0.0000 0.0000  plane waves:     307
 k-point ** :   0.0128 0.0128 0.0128  plane waves:     307
 k-point ** :   0.0256 0.0256 0.0256  plane waves:     310
 k-point ** :   0.0385 0.0385 0.0385  plane waves:     313
 k-point ** :   0.0513 0.0513 0.0513  plane waves:     313
 k-point ** :   0.0641 0.0641 0.0641  plane waves:     307
 k-point ** :   0.0769 0.0769 0.0769  plane waves:     307
 k-point ** :   0.0897 0.0897 0.0897  plane waves:     307
 k-point ** :   0.1026 0.1026 0.1026  plane waves:     307
 k-point ** :   0.1154 0.1154 0.1154  plane waves:     310
 k-point ** :   0.1282 0.1282 0.1282  plane waves:     310
 k-point ** :   0.1410 0.1410 0.1410  plane waves:     310
 k-point ** :   0.1538 0.1538 0.1538  plane waves:     310
 k-point ** :   0.1667 0.1667 0.1667  plane waves:     310
 k-point ** :   0.1795 0.1795 0.1795  plane waves:     310
 k-point ** :   0.1923 0.1923 0.1923  plane waves:     311
 k-point ** :   0.2051 0.2051 0.2051  plane waves:     311
 k-point ** :   0.2179 0.2179 0.2179  plane waves:     305
 k-point ** :   0.2308 0.2308 0.2308  plane waves:     302
 k-point ** :   0.2436 0.2436 0.2436  plane waves:     302
 k-point ** :   0.2564 0.2564 0.2564  plane waves:     302
 k-point ** :   0.2692 0.2692 0.2692  plane waves:     302
 k-point ** :   0.2821 0.2821 0.2821  plane waves:     302
 k-point ** :   0.2949 0.2949 0.2949  plane waves:     302
 k-point ** :   0.3077 0.3077 0.3077  plane waves:     302
 k-point ** :   0.3205 0.3205 0.3205  plane waves:     302
 k-point ** :   0.3333 0.3333 0.3333  plane waves:     302
 k-point ** :   0.3462 0.3462 0.3462  plane waves:     302
 k-point ** :   0.3590 0.3590 0.3590  plane waves:     305
 k-point ** :   0.3718 0.3718 0.3718  plane waves:     302
 k-point ** :   0.3846 0.3846 0.3846  plane waves:     302
 k-point ** :   0.3974 0.3974 0.3974  plane waves:     296
 k-point ** :   0.4103 0.4103 0.4103  plane waves:     296
[...]
     12      29.6121      0.00000
     13      34.4328      0.00000
     14      47.3511      0.00000
     15      47.4728      0.00000
     16      49.0252      0.00000
     17      51.7116      0.00000
     18      52.3505      0.00000
     19      56.5797      0.00000
     20      67.2473      0.00000
     21      67.5077      0.00000
     22      69.3492      0.00000
     23      71.1811      0.00000
     24      73.1208      0.00000
     25      73.9516      0.00000
     26      76.5470      0.00000
     27      84.2605      0.00000
     28      84.5411      0.00000
     29      88.5714      0.00000
     30      90.6637      0.00000
     31      91.6090      0.00000
     32      93.6063      0.00000
     33      93.9906      0.00000
     34      94.6134      0.00000
     35      97.3650      0.00000
     36      98.2126      0.00000
     37      98.2368      0.00000
     38      98.8021      0.00000
     39      99.5577      0.00000
     40     109.4157      0.00000
     41     111.8650      0.00000
     42     113.2891      0.00000
     43     117.1290      0.00000
     44     122.3914      0.00000
     45     122.4241      0.00000
     46     131.1759      0.00000
     47     132.3388      0.00000
     48     132.3969      0.00000
     49     132.6771      0.00000
     50     133.6587      0.00000
     51     134.1025      0.00000
     52     136.5942      0.00000
     53     139.8034      0.00000
     54     139.8915      0.00000
     55     146.2652      0.00000
     56     146.4738      0.00000
     57     150.2364      0.00000
     58     151.2690      0.00000
     59     152.3320      0.00000
     60     152.5687      0.00000
     61     154.5760      0.00000
     62     155.0467      0.00000
     63     156.4724      0.00000
     64     156.5409      0.00000
     65     157.9495      0.00000
     66     158.7658      0.00000
     67     159.1941      0.00000
     68     161.1415      0.00000
     69     162.2377      0.00000
     70     163.7150      0.00000
     71     165.0852      0.00000
     72     171.3501      0.00000
     73     171.5265      0.00000
     74     176.4165      0.00000
     75     177.2567      0.00000
     76     178.7164      0.00000
     77     180.2565      0.00000
     78     180.3796      0.00000
     79     189.4099      0.00000
     80     197.2335      0.00000

 k-point 318 :       0.4872    0.5128    0.5000
  band No.  band energies     occupation 
      1      -1.3045      2.00000
      2       0.6696      2.00000
      3       0.6812      2.00000
      4       2.0024      2.00000
      5       2.0875      2.00000
      6       2.8684      2.00000
      7       7.4770     -0.00000
      8      25.0085      0.00000
      9      25.6484      0.00000
     10      25.7846      0.00000
     11      29.1137      0.00000
     12      29.2724      0.00000
     13      34.2925      0.00000
     14      47.5424      0.00000
     15      47.6145      0.00000
     16      49.2537      0.00000
     17      51.6000      0.00000
     18      51.9345      0.00000
     19      56.4526      0.00000
     20      67.4325      0.00000
     21      67.5580      0.00000
     22      69.3422      0.00000
     23      71.0360      0.00000
     24      73.4450      0.00000
     25      73.8808      0.00000
     26      76.1128      0.00000
     27      84.3893      0.00000
     28      84.5286      0.00000
     29      89.4599      0.00000
     30      90.8310      0.00000
     31      92.0761      0.00000
     32      92.8471      0.00000
     33      94.6484      0.00000
     34      95.0244      0.00000
     35      97.1483      0.00000
     36      97.5834      0.00000
     37      98.1316      0.00000
     38      98.4613      0.00000
     39      98.8572      0.00000
     40     109.4529      0.00000
     41     112.6148      0.00000
     42     113.4116      0.00000
     43     116.5212      0.00000
     44     122.2195      0.00000
     45     122.2457      0.00000
     46     132.0828      0.00000
     47     132.3909      0.00000
     48     132.4145      0.00000
     49     132.7145      0.00000
     50     133.7363      0.00000
     51     134.1294      0.00000
     52     135.7463      0.00000
     53     139.7553      0.00000
     54     139.8024      0.00000
     55     146.3232      0.00000
     56     146.4170      0.00000
     57     151.0390      0.00000
     58     151.3705      0.00000
     59     152.4107      0.00000
     60     152.4673      0.00000
     61     154.3633      0.00000
     62     155.1513      0.00000
     63     156.2813      0.00000
     64     156.8342      0.00000
     65     157.9122      0.00000
     66     159.0434      0.00000
     67     159.7292      0.00000
     68     161.0042      0.00000
     69     161.9205      0.00000
     70     162.7671      0.00000
     71     164.2899      0.00000
     72     171.4043      0.00000
     73     171.4818      0.00000
     74     176.8631      0.00000
     75     177.4431      0.00000
     76     178.4689      0.00000
     77     180.0766      0.00000
     78     180.1112      0.00000
     79     189.8773      0.00000
     80     197.2710      0.00000

 k-point 319 :       0.4936    0.5064    0.5000
  band No.  band energies     occupation 
      1      -1.3119      2.00000
      2       0.6742      2.00000
      3       0.6771      2.00000
      4       2.0646      2.00000
      5       2.0882      2.00000
      6       2.7936      2.00000
      7       7.4739     -0.00000
      8      25.1351      0.00000
      9      25.8256      0.00000
     10      25.8540      0.00000
     11      28.9990      0.00000
     12      29.0407      0.00000
     13      34.2082      0.00000
     14      47.6654      0.00000
     15      47.6864      0.00000
     16      49.4671      0.00000
     17      51.5249      0.00000
     18      51.6216      0.00000
     19      56.3763      0.00000
     20      67.5536      0.00000
     21      67.5866      0.00000
     22      69.3379      0.00000
     23      70.9380      0.00000
     24      73.7129      0.00000
     25      73.8392      0.00000
     26      75.7803      0.00000
     27      84.4662      0.00000
     28      84.5212      0.00000
     29      90.3184      0.00000
     30      90.9371      0.00000
     31      92.0309      0.00000
     32      92.4585      0.00000
     33      95.1974      0.00000
     34      95.3237      0.00000
     35      96.9978      0.00000
     36      97.1144      0.00000
     37      98.0507      0.00000
     38      98.2271      0.00000
     39      98.3141      0.00000
     40     109.4751      0.00000
     41     113.2410      0.00000
     42     113.4935      0.00000
     43     115.9753      0.00000
     44     122.1214      0.00000
     45     122.1298      0.00000
     46     132.4101      0.00000
     47     132.4102      0.00000
     48     132.7501      0.00000
     49     132.9991      0.00000
     50     133.7759      0.00000
     51     134.1598      0.00000
     52     134.8748      0.00000
     53     139.7303      0.00000
     54     139.7433      0.00000
     55     146.3582      0.00000
     56     146.3818      0.00000
     57     151.3885      0.00000
     58     151.8845      0.00000
     59     152.3704      0.00000
     60     152.4771      0.00000
     61     153.6026      0.00000
     62     155.7580      0.00000
     63     156.1879      0.00000
     64     157.0081      0.00000
     65     157.3123      0.00000
     66     159.9019      0.00000
     67     160.3458      0.00000
     68     160.9291      0.00000
     69     161.5327      0.00000
     70     161.8305      0.00000
     71     163.7262      0.00000
     72     171.4380      0.00000
     73     171.4573      0.00000
     74     177.2976      0.00000
     75     177.5716      0.00000
     76     178.1489      0.00000
     77     179.9512      0.00000
     78     179.9554      0.00000
     79     190.1976      0.00000
     80     197.2028      0.00000

 k-point 320 :       0.5000    0.5000    0.5000
  band No.  band energies     occupation 
      1      -1.3143      2.00000
      2       0.6757      2.00000
      3       0.6757      2.00000
      4       2.0884      2.00000
      5       2.0884      2.00000
      6       2.7656      2.00000
      7       7.4728     -0.00000
      8      25.1725      0.00000
      9      25.8883      0.00000
     10      25.8883      0.00000
     11      28.9570      0.00000
     12      28.9570      0.00000
     13      34.1801      0.00000
     14      47.7079      0.00000
     15      47.7079      0.00000
     16      49.5598      0.00000
     17      51.4982      0.00000
     18      51.4982      0.00000
     19      56.3508      0.00000
     20      67.5959      0.00000
     21      67.5959      0.00000
     22      69.3365      0.00000
     23      70.9031      0.00000
     24      73.8256      0.00000
     25      73.8256      0.00000
     26      75.6463      0.00000
     27      84.4918      0.00000
     28      84.5188      0.00000
     29      90.9736      0.00000
     30      90.9736      0.00000
     31      91.4152      0.00000
     32      92.5775      0.00000
     33      95.4392      0.00000
     34      95.4392      0.00000
     35      96.9354      0.00000
     36      96.9354      0.00000
     37      97.9700      0.00000
     38      98.1390      0.00000
     39      98.1390      0.00000
     40     109.4824      0.00000
     41     113.5223      0.00000
     42     113.5223      0.00000
     43     115.7201      0.00000
     44     122.0896      0.00000
     45     122.0896      0.00000
     46     132.4146      0.00000
     47     132.4146      0.00000
     48     132.7641      0.00000
     49     133.7092      0.00000
     50     133.7875      0.00000
     51     134.1729      0.00000
     52     134.1729      0.00000
     53     139.7225      0.00000
     54     139.7225      0.00000
     55     146.3699      0.00000
     56     146.3699      0.00000
     57     151.4120      0.00000
     58     152.3472      0.00000
     59     152.4876      0.00000
     60     152.4876      0.00000
     61     153.0064      0.00000
     62     156.1596      0.00000
     63     156.1596      0.00000
     64     156.9058      0.00000
     65     157.0649      0.00000
     66     160.6449      0.00000
     67     160.8516      0.00000
     68     160.8516      0.00000
     69     161.1231      0.00000
     70     161.1231      0.00000
     71     163.5205      0.00000
     72     171.4495      0.00000
     73     171.4495      0.00000
     74     177.6181      0.00000
     75     177.6181      0.00000
     76     177.8645      0.00000
     77     179.9055      0.00000
     78     179.9055      0.00000
     79     190.3129      0.00000
     80     197.0505      0.00000


--------------------------------------------------------------------------------------------------------


 soft charge-density along one line, spin component           1
         0         1         2         3         4         5         6         7         8         9
 total charge-density along one line
 
 pseudopotential strength for first ion, spin component:           1
 -6.448  -0.000  -0.000  -0.000   0.000  -0.252  -0.000   0.000
 -0.000  -6.448   0.000  -0.000  -0.000  -0.000  -0.252  -0.000
 -0.000   0.000  -6.446   0.000  -0.000   0.000  -0.000  -0.253
 -0.000  -0.000   0.000  -6.448   0.000  -0.000  -0.000  -0.000
  0.000  -0.000  -0.000   0.000  -6.446  -0.000   0.000   0.000
 -0.252  -0.000   0.000  -0.000  -0.000   1.681   0.000  -0.000
 -0.000  -0.252  -0.000  -0.000   0.000   0.000   1.681   0.000
  0.000  -0.000  -0.253  -0.000   0.000  -0.000   0.000   1.681
 -0.000  -0.000  -0.000  -0.252  -0.000   0.000   0.000   0.000
 -0.000   0.000   0.000  -0.000  -0.253   0.000  -0.000  -0.000
 -0.000  -0.000   0.000  -0.000   0.000  -0.000  -0.000  -0.000
  0.000   0.000  -0.000   0.000   0.000  -0.000  -0.000   0.000
  0.000  -0.000   0.000   0.000   0.000  -0.000   0.000  -0.000
  0.000  -0.000  -0.000   0.000   0.000   0.000   0.000   0.000
 -0.000   0.000  -0.000  -0.000   0.000   0.000   0.000   0.000
 -0.000   0.000  -0.000  -0.000  -0.000   0.000  -0.000   0.000
 -0.000   0.000   0.000  -0.000  -0.000   0.000  -0.000  -0.000
  0.000  -0.000   0.000   0.000  -0.000  -0.000   0.000  -0.000
 total augmentation occupancy for first ion, spin component:           1
  2.000   0.000   0.000   0.000   0.000   0.000   0.000   0.000   0.000   0.000   0.000   0.000   0.000   0.000   0.000   0.000
  0.000   2.000   0.000   0.000   0.000   0.000   0.000   0.000   0.000   0.000   0.000   0.000   0.000   0.000   0.000   0.000
  0.000   0.000   2.000   0.000   0.000   0.000   0.000   0.000   0.000   0.000   0.000   0.000   0.000   0.000   0.000   0.000
  0.000   0.000   0.000   2.000   0.000   0.000   0.000   0.000   0.000   0.000   0.000   0.000   0.000   0.000   0.000   0.000
  0.000   0.000   0.000   0.000   2.000   0.000   0.000   0.000   0.000   0.000   0.000   0.000   0.000   0.000   0.000   0.000
  0.000   0.000   0.000   0.000   0.000   0.000   0.000   0.000   0.000   0.000   0.000   0.000   0.000   0.000   0.000   0.000
  0.000   0.000   0.000   0.000   0.000   0.000   0.000   0.000   0.000   0.000   0.000   0.000   0.000   0.000   0.000   0.000
  0.000   0.000   0.000   0.000   0.000   0.000   0.000   0.000   0.000   0.000   0.000   0.000   0.000   0.000   0.000   0.000
  0.000   0.000   0.000   0.000   0.000   0.000   0.000   0.000   0.000   0.000   0.000   0.000   0.000   0.000   0.000   0.000
  0.000   0.000   0.000   0.000   0.000   0.000   0.000   0.000   0.000   0.000   0.000   0.000   0.000   0.000   0.000   0.000
  0.000   0.000   0.000   0.000   0.000   0.000   0.000   0.000   0.000   0.000   1.000   0.000   0.000   0.000   0.000   0.000
  0.000   0.000   0.000   0.000   0.000   0.000   0.000   0.000   0.000   0.000   0.000   0.000   0.000   0.000   0.000   0.000
  0.000   0.000   0.000   0.000   0.000   0.000   0.000   0.000   0.000   0.000   0.000   0.000   0.000   0.000   0.000   0.000
  0.000   0.000   0.000   0.000   0.000   0.000   0.000   0.000   0.000   0.000   0.000   0.000   0.000   0.000   0.000   0.000
  0.000   0.000   0.000   0.000   0.000   0.000   0.000   0.000   0.000   0.000   0.000   0.000   0.000   0.000   0.000   0.000
  0.000   0.000   0.000   0.000   0.000   0.000   0.000   0.000   0.000   0.000   0.000   0.000   0.000   0.000   0.000   0.000
  0.000   0.000   0.000   0.000   0.000   0.000   0.000   0.000   0.000   0.000   0.000   0.000   0.000   0.000   0.000   0.000
  0.000   0.000   0.000   0.000   0.000   0.000   0.000   0.000   0.000   0.000   0.000   0.000   0.000   0.000   0.000   0.000


------------------------ aborting loop because EDIFF is reached ----------------------------------------


 


 total charge     
 
# of ion     s       p       d       tot
----------------------------------------
  1        0.363   0.424   9.246  10.032
 
    CHARGE:  cpu time    0.04: real time    0.04
    FORLOC:  cpu time    0.00: real time    0.00
    FORNL :  cpu time    1.29: real time    1.29
    STRESS:  cpu time    3.80: real time    3.81
    FORCOR:  cpu time    0.00: real time    0.00
    FORHAR:  cpu time    0.00: real time    0.00

  FORCE on cell =-STRESS in cart. coord.  units (eV):
  Direction    XX          YY          ZZ          XY          YZ          ZX
  --------------------------------------------------------------------------------------
  Alpha Z   107.61766   107.61766   107.61766
  Ewald    -367.66859  -367.66859  -367.66859    -0.00000    -0.00000     0.00000
  Hartree   102.91535   102.91535   102.91535     0.00000     0.00000     0.00000
  E(xc)     -62.62690   -62.62690   -62.62690     0.00000     0.00000     0.00000
  Local     123.38901   123.38901   123.38901     0.00005     0.00005     0.00005
  n-local   -34.58663   -36.10109   -36.14755    -0.61143    -0.24664    -0.54538
  augment    57.06382    57.06382    57.06382    -0.00004    -0.00004    -0.00004
  Kinetic    77.18919    78.14365    82.36610     2.20101     2.14389     2.73002
  Fock        0.00000     0.00000     0.00000     0.00000     0.00000     0.00000
  -------------------------------------------------------------------------------------
  Total       4.31158     4.31158     4.31158     0.00000     0.00000     0.00000
  in kB     581.87145   581.87145   581.87145     0.00000     0.00000     0.00000
  external pressure =      581.87 kB  Pullay stress =        0.00 kB


 VOLUME and BASIS-vectors are now :
 -----------------------------------------------------------------------------
  energy-cutoff  :      500.00
  volume of cell :       11.87
      direct lattice vectors                 reciprocal lattice vectors
    -1.810631000 -1.810631000  0.000000000    -0.276146824 -0.276146824  0.276146824
    -1.810631000  0.000000000 -1.810631000    -0.276146824  0.276146824 -0.276146824
     0.000000000 -1.810631000 -1.810631000     0.276146824 -0.276146824 -0.276146824

  length of vectors
     2.560618917  2.560618917  2.560618917     0.478300329  0.478300329  0.478300329


 FORCES acting on ions
    electron-ion (+dipol)            ewald-force                    non-local-force                 convergence-correction
 -----------------------------------------------------------------------------------------------
   0.126E-15 0.845E-15 0.610E-15   0.567E-14 0.198E-14 0.758E-15   -.194E-25 -.258E-25 -.258E-25   -.173E-12 0.977E-13 0.430E-13
 -----------------------------------------------------------------------------------------------
   0.126E-15 0.845E-15 0.610E-15   0.567E-14 0.198E-14 0.758E-15   -.194E-25 -.258E-25 -.258E-25   -.173E-12 0.977E-13 0.430E-13
 
 
 POSITION                                       TOTAL-FORCE (eV/Angst)
 -----------------------------------------------------------------------------------
      0.00000      0.00000      0.00000        -0.000000      0.000000      0.000000
 -----------------------------------------------------------------------------------
    total drift:                               -0.000000      0.000000      0.000000


--------------------------------------------------------------------------------------------------------



  FREE ENERGIE OF THE ION-ELECTRON SYSTEM (eV)
  ---------------------------------------------------
  free  energy   TOTEN  =        -3.20447708 eV

  energy  without entropy=       -3.20441718  energy(sigma->0) =       -3.20445711
 


--------------------------------------------------------------------------------------------------------


    POTLOK:  cpu time    0.04: real time    0.04


--------------------------------------------------------------------------------------------------------


     LOOP+:  cpu time   50.28: real time   50.38
    4ORBIT:  cpu time    0.00: real time    0.00
 


 total charge     
 
# of ion     s       p       d       tot
----------------------------------------
  1        0.363   0.424   9.246  10.032
 

 total amount of memory used by VASP on root node    39296. kBytes
========================================================================

   base      :      30000. kBytes
   nonlr-proj:       1688. kBytes
   fftplans  :        145. kBytes
   grid      :        485. kBytes
   one-center:         15. kBytes
   wavefun   :       6963. kBytes
 
  
  
 General timing and accounting informations for this job:
 ========================================================
  
                  Total CPU time used (sec):       59.435
                            User time (sec):       57.507
                          System time (sec):        1.928
                         Elapsed time (sec):       59.817
  
                   Maximum memory used (kb):       79828.
                   Average memory used (kb):           0.
  
                          Minor page faults:        14344
                          Major page faults:            0
                 Voluntary context switches:         1687
